============================== echo of input deck ==============================
 echo
 start H2
 title "H2"

 memory total 24 gb

 geometry units bohr
 symmetry c1
        H  0.00000000  0.00000000  0.00000000
        H  0.00000000  5.00  0.00000000
 end

 basis
   * library cc-pVQZ
 end

 mcscf
   active  2
   actelec 2
   multiplicity 1
   maxiter 40
   vectors input H2.mos
   vectors output H2.mos
 end

 task mcscf

 scf
   vectors input H2.mos
   vectors output H2-5.00.mos
   noscf
 end

 tce
   2eorb
   2emet 13
   ccsd
   maxiter 300
   diis 40
   lshift 0.2
 end

 set tce:print_integrals T
 set tce:qorb 2
 set tce:qela 1
 set tce:qelb 1

# set tce:qducc T
# set tce:nactv 1
# set tce:nonhf T
# set tce:ducc_model 6

 set tce:printtol 0.02

 task tce
================================================================================

 Output coordinates in a.u. (scale by  1.000000000 to convert to a.u.)

  No.       Tag          Charge          X              Y              Z
 ---- ---------------- ---------- -------------- -------------- --------------
    1 H                    1.0000     0.00000000    -2.50000000     0.00000000
    2 H                    1.0000     0.00000000     2.50000000     0.00000000

 Vector    1  Occ=1.247000D+00  E=-3.013768D-01  Symmetry=a

 Vector    2  Occ=7.529999D-01  E=-1.980439D-01  Symmetry=a

 Vector    3  Occ=0.000000D+00  E= 2.735026D-01  Symmetry=a

 Vector    4  Occ=0.000000D+00  E= 2.800228D-01  Symmetry=a

 Vector    5  Occ=0.000000D+00  E= 4.350663D-01  Symmetry=a

 Vector    6  Occ=0.000000D+00  E= 4.768550D-01  Symmetry=a

 Vector    7  Occ=0.000000D+00  E= 4.768550D-01  Symmetry=a

 Vector    8  Occ=0.000000D+00  E= 5.479874D-01  Symmetry=a

 Vector    9  Occ=0.000000D+00  E= 5.479874D-01  Symmetry=a

 Vector   10  Occ=0.000000D+00  E= 7.232916D-01  Symmetry=a

 Vector   11  Occ=0.000000D+00  E= 1.118074D+00  Symmetry=a

 Vector   12  Occ=0.000000D+00  E= 1.209170D+00  Symmetry=a

         Total SCF energy =     -0.836355156966

 Vector    1  Occ=2.000000D+00  E=-3.013768D-01

 Vector    2  Occ=0.000000D+00  E=-1.980439D-01

 Vector    3  Occ=0.000000D+00  E= 2.735026D-01

 Vector    4  Occ=0.000000D+00  E= 2.800228D-01

 Vector    5  Occ=0.000000D+00  E= 4.350663D-01

 Vector    6  Occ=0.000000D+00  E= 4.768550D-01

 Vector    7  Occ=0.000000D+00  E= 4.768550D-01

 Vector    8  Occ=0.000000D+00  E= 5.479874D-01

 Vector    9  Occ=0.000000D+00  E= 5.479874D-01

 Vector   10  Occ=0.000000D+00  E= 7.232916D-01

 Vector   11  Occ=0.000000D+00  E= 1.118074D+00

       Multipole analysis of the density wrt the origin
       ------------------------------------------------

     L   x y z        total         open         nuclear
     -   - - -        -----         ----         -------
     0   0 0 0     -0.000000      0.000000      2.000000

     1   1 0 0     -0.000000      0.000000      0.000000
     1   0 1 0      0.000000      0.000000      0.000000
     1   0 0 1      0.000000      0.000000      0.000000

     2   2 0 0     -2.152936      0.000000      0.000000
     2   1 1 0      0.000000      0.000000      0.000000
     2   1 0 1      0.000000      0.000000      0.000000
     2   0 2 0     -1.196582      0.000000     12.500000
     2   0 1 1     -0.000000      0.000000      0.000000

 CCSD total energy / hartree       =        -1.002737414964155
 Total times  cpu:        1.6s     wall:        1.6s
