============================== echo of input deck ==============================
 echo
 start H2O
 title "H2O"

 memory total 24 gb

 geometry units bohr
 symmetry c1
        O  0.00000000  0.00000000  0.00000000
        H  0.00000000  1.4931945  0.00000000
        H  1.72558000 -0.64860000  0.00000000
 end

 basis spherical
   * library cc-pVTZ
 end

 mcscf
   active  8
   actelec 10
   multiplicity 1
   maxiter 40
   vectors input h2o.mos
   vectors output h2o.mos
 end

 task mcscf

 scf
   vectors input h2o.mos
   vectors output h2o-trash.mos
   noscf
 end

 tce
   2eorb
   2emet 13
   ccsd
 end

# set tce:print_integrals T
# set tce:qorb 8
# set tce:qela 5
# set tce:qelb 5

 set tce:qducc T
 set tce:nactv 3
 set tce:nonhf T
 set tce:ducc_model 6

 set tce:printtol 0.02

 task tce
================================================================================

 Output coordinates in a.u. (scale by  1.000000000 to convert to a.u.)

  No.       Tag          Charge          X              Y              Z
 ---- ---------------- ---------- -------------- -------------- --------------
    1 O                    8.0000    -0.17255800    -0.08445945     0.00000000
    2 H                    1.0000    -0.17255800     1.40873505     0.00000000
    3 H                    1.0000     1.55302200    -0.73305945     0.00000000

 Vector    1  Occ=1.999987D+00  E=-2.052745D+01  Symmetry=a

 Vector    2  Occ=1.999196D+00  E=-1.402106D+00  Symmetry=a

 Vector    3  Occ=1.985287D+00  E=-7.898997D-01  Symmetry=a

 Vector    4  Occ=1.983867D+00  E=-5.961450D-01  Symmetry=a

 Vector    5  Occ=1.978040D+00  E=-5.332358D-01  Symmetry=a

 Vector    6  Occ=2.264206D-02  E=-2.563836D-02  Symmetry=a

 Vector    7  Occ=1.593882D-02  E=-1.862549D-02  Symmetry=a

 Vector    8  Occ=1.504216D-02  E=-1.593227D-02  Symmetry=a

 Vector    9  Occ=0.000000D+00  E= 2.669807D-01  Symmetry=a

 Vector   10  Occ=0.000000D+00  E= 3.332355D-01  Symmetry=a

 Vector   11  Occ=0.000000D+00  E= 6.271589D-01  Symmetry=a

 Vector   12  Occ=0.000000D+00  E= 6.554918D-01  Symmetry=a

 Vector   13  Occ=0.000000D+00  E= 8.103046D-01  Symmetry=a

 Vector   14  Occ=0.000000D+00  E= 8.607012D-01  Symmetry=a

 Vector   15  Occ=0.000000D+00  E= 9.739046D-01  Symmetry=a

 Vector   16  Occ=0.000000D+00  E= 1.057398D+00  Symmetry=a

 Vector   17  Occ=0.000000D+00  E= 1.221985D+00  Symmetry=a

 Vector   18  Occ=0.000000D+00  E= 1.365119D+00  Symmetry=a

         Total SCF energy =    -76.018858747933

 Vector    2  Occ=2.000000D+00  E=-1.402106D+00

 Vector    3  Occ=2.000000D+00  E=-7.898997D-01

 Vector    4  Occ=2.000000D+00  E=-5.961450D-01

 Vector    5  Occ=2.000000D+00  E=-5.332358D-01

 Vector    6  Occ=0.000000D+00  E=-2.563836D-02

 Vector    7  Occ=0.000000D+00  E=-1.862549D-02

 Vector    8  Occ=0.000000D+00  E=-1.593227D-02

 Vector    9  Occ=0.000000D+00  E= 2.669807D-01

 Vector   10  Occ=0.000000D+00  E= 3.332355D-01

 Vector   11  Occ=0.000000D+00  E= 6.271589D-01

 Vector   12  Occ=0.000000D+00  E= 6.554918D-01

 Vector   13  Occ=0.000000D+00  E= 8.103046D-01

 Vector   14  Occ=0.000000D+00  E= 8.607012D-01

 Vector   15  Occ=0.000000D+00  E= 9.739046D-01

       Multipole analysis of the density wrt the origin
       ------------------------------------------------

     L   x y z        total         open         nuclear
     -   - - -        -----         ----         -------
     0   0 0 0     -0.000000      0.000000     10.000000

     1   1 0 0      0.612662      0.000000     -0.000000
     1   0 1 0      0.345071      0.000000      0.000000
     1   0 0 1     -0.000002      0.000000      0.000000

     2   2 0 0     -3.948457      0.000000      2.679864
     2   1 1 0     -0.780790      0.000000     -1.264953
     2   1 0 1      0.000000      0.000000      0.000000
     2   0 2 0     -3.730554      0.000000      2.578978
     2   0 1 1     -0.000000      0.000000      0.000000

 CCSD total energy / hartree       =       -76.296209665497571
 Total times  cpu:      703.2s     wall:      711.1s
