============================== echo of input deck ==============================
 echo
 start H2O
 title "H2O"

 memory total 24 gb

 geometry units bohr
 symmetry c1
        O  0.00000000  0.00000000  0.00000000
        H  0.00000000  1.72362575  0.00000000
        H  1.72558000 -0.64860000  0.00000000
 end

 basis spherical
   * library cc-pVTZ
 end

 mcscf
   active  8
   actelec 10
   multiplicity 1
   maxiter 40
   vectors input h2o.mos
   vectors output h2o.mos
 end

 task mcscf

 scf
   vectors input h2o.mos
   vectors output h2o-trash.mos
   noscf
 end

 tce
   2eorb
   2emet 13
   ccsd
 end

# set tce:print_integrals T
# set tce:qorb 8
# set tce:qela 5
# set tce:qelb 5

 set tce:qducc T
 set tce:nactv 3
 set tce:nonhf T
 set tce:ducc_model 6

 set tce:printtol 0.02

 task tce
================================================================================

 Output coordinates in a.u. (scale by  1.000000000 to convert to a.u.)

  No.       Tag          Charge          X              Y              Z
 ---- ---------------- ---------- -------------- -------------- --------------
    1 O                    8.0000    -0.17255800    -0.10750258     0.00000000
    2 H                    1.0000    -0.17255800     1.61612318     0.00000000
    3 H                    1.0000     1.55302200    -0.75610258     0.00000000

 Vector    1  Occ=1.999988D+00  E=-2.053896D+01  Symmetry=a

 Vector    2  Occ=1.999026D+00  E=-1.358878D+00  Symmetry=a

 Vector    3  Occ=1.982756D+00  E=-7.538618D-01  Symmetry=a

 Vector    4  Occ=1.980274D+00  E=-5.866950D-01  Symmetry=a

 Vector    5  Occ=1.977258D+00  E=-5.266451D-01  Symmetry=a

 Vector    6  Occ=2.344743D-02  E=-2.568897D-02  Symmetry=a

 Vector    7  Occ=2.029044D-02  E=-2.306356D-02  Symmetry=a

 Vector    8  Occ=1.696039D-02  E=-1.602090D-02  Symmetry=a

 Vector    9  Occ=0.000000D+00  E= 2.888393D-01  Symmetry=a

 Vector   10  Occ=0.000000D+00  E= 3.354132D-01  Symmetry=a

 Vector   11  Occ=0.000000D+00  E= 6.126609D-01  Symmetry=a

 Vector   12  Occ=0.000000D+00  E= 6.539778D-01  Symmetry=a

 Vector   13  Occ=0.000000D+00  E= 8.098832D-01  Symmetry=a

 Vector   14  Occ=0.000000D+00  E= 8.496104D-01  Symmetry=a

 Vector   15  Occ=0.000000D+00  E= 9.739048D-01  Symmetry=a

 Vector   16  Occ=0.000000D+00  E= 1.106566D+00  Symmetry=a

 Vector   17  Occ=0.000000D+00  E= 1.186218D+00  Symmetry=a

 Vector   18  Occ=0.000000D+00  E= 1.378501D+00  Symmetry=a

         Total SCF energy =    -76.053827468639

 Vector    2  Occ=2.000000D+00  E=-1.358878D+00

 Vector    3  Occ=2.000000D+00  E=-7.538618D-01

 Vector    4  Occ=2.000000D+00  E=-5.866950D-01

 Vector    5  Occ=2.000000D+00  E=-5.266451D-01

 Vector    6  Occ=0.000000D+00  E=-2.568897D-02

 Vector    7  Occ=0.000000D+00  E=-2.306356D-02

 Vector    8  Occ=0.000000D+00  E=-1.602090D-02

 Vector    9  Occ=0.000000D+00  E= 2.888393D-01

 Vector   10  Occ=0.000000D+00  E= 3.354132D-01

 Vector   11  Occ=0.000000D+00  E= 6.126609D-01

 Vector   12  Occ=0.000000D+00  E= 6.539778D-01

 Vector   13  Occ=0.000000D+00  E= 8.098832D-01

 Vector   14  Occ=0.000000D+00  E= 8.496104D-01

 Vector   15  Occ=0.000000D+00  E= 9.739048D-01

       Multipole analysis of the density wrt the origin
       ------------------------------------------------

     L   x y z        total         open         nuclear
     -   - - -        -----         ----         -------
     0   0 0 0     -0.000000      0.000000     10.000000

     1   1 0 0      0.596589      0.000000     -0.000000
     1   0 1 0      0.387359      0.000000      0.000000
     1   0 0 1     -0.000001      0.000000      0.000000

     2   2 0 0     -4.054249      0.000000      2.679864
     2   1 1 0     -0.804276      0.000000     -1.304715
     2   1 0 1     -0.000000      0.000000      0.000000
     2   0 2 0     -3.582148      0.000000      3.276000
     2   0 1 1     -0.000000      0.000000      0.000000

 CCSD total energy / hartree       =       -76.334428587009114
 Total times  cpu:      985.3s     wall:      998.5s
