============================== echo of input deck ==============================
 echo
 start H2O
 title "H2O"

 memory total 24 gb

 geometry units bohr
 symmetry c1
        O  0.00000000  0.00000000  0.00000000
        H  0.00000000  1.83423275  0.00000000
        H  1.72558000 -0.64860000  0.00000000
 end

 basis spherical
   * library cc-pVTZ
 end

 mcscf
   active  8
   actelec 10
   multiplicity 1
   maxiter 40
   vectors input h2o.mos
   vectors output h2o.mos
 end

 task mcscf

 scf
   vectors input h2o.mos
   vectors output h2o-trash.mos
   noscf
 end

 tce
   2eorb
   2emet 13
   ccsd
 end

# set tce:print_integrals T
# set tce:qorb 8
# set tce:qela 5
# set tce:qelb 5

 set tce:qducc T
 set tce:nactv 3
 set tce:nonhf T
 set tce:ducc_model 6

 set tce:printtol 0.02

 task tce
================================================================================

 Output coordinates in a.u. (scale by  1.000000000 to convert to a.u.)

  No.       Tag          Charge          X              Y              Z
 ---- ---------------- ---------- -------------- -------------- --------------
    1 O                    8.0000    -0.17255800    -0.11856328     0.00000000
    2 H                    1.0000    -0.17255800     1.71566948     0.00000000
    3 H                    1.0000     1.55302200    -0.76716328     0.00000000

 Vector    1  Occ=1.999988D+00  E=-2.054393D+01  Symmetry=a

 Vector    2  Occ=1.998932D+00  E=-1.342992D+00  Symmetry=a

 Vector    3  Occ=1.982226D+00  E=-7.376674D-01  Symmetry=a

 Vector    4  Occ=1.977171D+00  E=-5.821677D-01  Symmetry=a

 Vector    5  Occ=1.976755D+00  E=-5.241100D-01  Symmetry=a

 Vector    6  Occ=2.400127D-02  E=-2.608879D-02  Symmetry=a

 Vector    7  Occ=2.348256D-02  E=-2.502240D-02  Symmetry=a

 Vector    8  Occ=1.744327D-02  E=-1.601832D-02  Symmetry=a

 Vector    9  Occ=0.000000D+00  E= 2.948535D-01  Symmetry=a

 Vector   10  Occ=0.000000D+00  E= 3.353798D-01  Symmetry=a

 Vector   11  Occ=0.000000D+00  E= 6.120212D-01  Symmetry=a

 Vector   12  Occ=0.000000D+00  E= 6.584259D-01  Symmetry=a

 Vector   13  Occ=0.000000D+00  E= 8.108070D-01  Symmetry=a

 Vector   14  Occ=0.000000D+00  E= 8.438000D-01  Symmetry=a

 Vector   15  Occ=0.000000D+00  E= 9.735896D-01  Symmetry=a

 Vector   16  Occ=0.000000D+00  E= 1.130760D+00  Symmetry=a

 Vector   17  Occ=0.000000D+00  E= 1.169089D+00  Symmetry=a

 Vector   18  Occ=0.000000D+00  E= 1.374950D+00  Symmetry=a

         Total SCF energy =    -76.053554215698

 Vector    2  Occ=2.000000D+00  E=-1.342992D+00

 Vector    3  Occ=2.000000D+00  E=-7.376674D-01

 Vector    4  Occ=2.000000D+00  E=-5.821677D-01

 Vector    5  Occ=2.000000D+00  E=-5.241100D-01

 Vector    6  Occ=0.000000D+00  E=-2.608879D-02

 Vector    7  Occ=0.000000D+00  E=-2.502240D-02

 Vector    8  Occ=0.000000D+00  E=-1.601832D-02

 Vector    9  Occ=0.000000D+00  E= 2.948535D-01

 Vector   10  Occ=0.000000D+00  E= 3.353798D-01

 Vector   11  Occ=0.000000D+00  E= 6.120212D-01

 Vector   12  Occ=0.000000D+00  E= 6.584259D-01

 Vector   13  Occ=0.000000D+00  E= 8.108070D-01

 Vector   14  Occ=0.000000D+00  E= 8.438000D-01

 Vector   15  Occ=0.000000D+00  E= 9.735896D-01

       Multipole analysis of the density wrt the origin
       ------------------------------------------------

     L   x y z        total         open         nuclear
     -   - - -        -----         ----         -------
     0   0 0 0     -0.000000      0.000000     10.000000

     1   1 0 0      0.589827      0.000000     -0.000000
     1   0 1 0      0.406524      0.000000      0.000000
     1   0 0 1      0.000007      0.000000      0.000000

     2   2 0 0     -4.102171      0.000000      2.679864
     2   1 1 0     -0.815533      0.000000     -1.323802
     2   1 0 1     -0.000011      0.000000      0.000000
     2   0 2 0     -3.499445      0.000000      3.644519
     2   0 1 1     -0.000014      0.000000      0.000000

 CCSD total energy / hartree       =       -76.335923691382192
 Total times  cpu:      926.2s     wall:     1000.6s
