============================== echo of input deck ==============================
 echo
 start H2O
 title "H2O"

 memory total 24 gb

 geometry units bohr
 symmetry c1
        O  0.00000000  0.00000000  0.00000000
        H  0.00000000  1.990926  0.00000000
        H  1.72558000 -0.64860000  0.00000000
 end

 basis spherical
   * library cc-pVTZ
 end

 mcscf
   active  8
   actelec 10
   multiplicity 1
   maxiter 40
   vectors input h2o.mos
   vectors output h2o.mos
 end

 task mcscf

 scf
   vectors input h2o.mos
   vectors output h2o-trash.mos
   noscf
 end

 tce
   2eorb
   2emet 13
   ccsd
 end

# set tce:print_integrals T
# set tce:qorb 8
# set tce:qela 5
# set tce:qelb 5

 set tce:qducc T
 set tce:nactv 3
 set tce:nonhf T
 set tce:ducc_model 6

 set tce:printtol 0.02

 task tce
================================================================================

 Output coordinates in a.u. (scale by  1.000000000 to convert to a.u.)

  No.       Tag          Charge          X              Y              Z
 ---- ---------------- ---------- -------------- -------------- --------------
    1 O                    8.0000    -0.17255800    -0.13423260     0.00000000
    2 H                    1.0000    -0.17255800     1.85669340     0.00000000
    3 H                    1.0000     1.55302200    -0.78283260     0.00000000

 Vector    1  Occ=1.999989D+00  E=-2.055033D+01  Symmetry=a

 Vector    2  Occ=1.998782D+00  E=-1.325173D+00  Symmetry=a

 Vector    3  Occ=1.981536D+00  E=-7.166569D-01  Symmetry=a

 Vector    4  Occ=1.976222D+00  E=-5.753866D-01  Symmetry=a

 Vector    5  Occ=1.971500D+00  E=-5.213117D-01  Symmetry=a

 Vector    6  Occ=2.941785D-02  E=-2.916667D-02  Symmetry=a

 Vector    7  Occ=2.449242D-02  E=-2.565303D-02  Symmetry=a

 Vector    8  Occ=1.806077D-02  E=-1.595350D-02  Symmetry=a

 Vector    9  Occ=0.000000D+00  E= 3.020671D-01  Symmetry=a

 Vector   10  Occ=0.000000D+00  E= 3.353257D-01  Symmetry=a

 Vector   11  Occ=0.000000D+00  E= 6.119580D-01  Symmetry=a

 Vector   12  Occ=0.000000D+00  E= 6.715418D-01  Symmetry=a

 Vector   13  Occ=0.000000D+00  E= 8.135752D-01  Symmetry=a

 Vector   14  Occ=0.000000D+00  E= 8.353371D-01  Symmetry=a

 Vector   15  Occ=0.000000D+00  E= 9.728227D-01  Symmetry=a

 Vector   16  Occ=0.000000D+00  E= 1.141483D+00  Symmetry=a

 Vector   17  Occ=0.000000D+00  E= 1.167690D+00  Symmetry=a

 Vector   18  Occ=0.000000D+00  E= 1.309251D+00  Symmetry=a

         Total SCF energy =    -76.042860116130

 Vector    2  Occ=2.000000D+00  E=-1.325173D+00

 Vector    3  Occ=2.000000D+00  E=-7.166569D-01

 Vector    4  Occ=2.000000D+00  E=-5.753866D-01

 Vector    5  Occ=2.000000D+00  E=-5.213117D-01

 Vector    6  Occ=0.000000D+00  E=-2.916667D-02

 Vector    7  Occ=0.000000D+00  E=-2.565303D-02

 Vector    8  Occ=0.000000D+00  E=-1.595350D-02

 Vector    9  Occ=0.000000D+00  E= 3.020671D-01

 Vector   10  Occ=0.000000D+00  E= 3.353257D-01

 Vector   11  Occ=0.000000D+00  E= 6.119580D-01

 Vector   12  Occ=0.000000D+00  E= 6.715418D-01

 Vector   13  Occ=0.000000D+00  E= 8.135752D-01

 Vector   14  Occ=0.000000D+00  E= 8.353371D-01

 Vector   15  Occ=0.000000D+00  E= 9.728227D-01

       Multipole analysis of the density wrt the origin
       ------------------------------------------------

     L   x y z        total         open         nuclear
     -   - - -        -----         ----         -------
     0   0 0 0     -0.000000      0.000000     10.000000

     1   1 0 0      0.581345      0.000000     -0.000000
     1   0 1 0      0.430204      0.000000      0.000000
     1   0 0 1     -0.000004      0.000000      0.000000

     2   2 0 0     -4.166317      0.000000      2.679864
     2   1 1 0     -0.830570      0.000000     -1.350840
     2   1 0 1     -0.000003      0.000000      0.000000
     2   0 2 0     -3.374347      0.000000      4.204284
     2   0 1 1     -0.000001      0.000000      0.000000

 CCSD total energy / hartree       =       -76.327911618455857
 Total times  cpu:      815.0s     wall:      820.8s
