============================== echo of input deck ==============================
 echo
 start H2O
 title "H2O"

 memory total 24 gb

 geometry units bohr
 symmetry c1
        O  0.00000000  0.00000000  0.00000000
        H  0.00000000  2.07388125  0.00000000
        H  1.72558000 -0.64860000  0.00000000
 end

 basis spherical
   * library cc-pVTZ
 end

 mcscf
   active  8
   actelec 10
   multiplicity 1
   maxiter 40
   vectors input h2o.mos
   vectors output h2o.mos
 end

 task mcscf

 scf
   vectors input h2o.mos
   vectors output h2o-trash.mos
   noscf
 end

 tce
   2eorb
   2emet 13
   ccsd
 end

# set tce:print_integrals T
# set tce:qorb 8
# set tce:qela 5
# set tce:qelb 5

 set tce:qducc T
 set tce:nactv 3
 set tce:nonhf T
 set tce:ducc_model 6

 set tce:printtol 0.02

 task tce
================================================================================

 Output coordinates in a.u. (scale by  1.000000000 to convert to a.u.)

  No.       Tag          Charge          X              Y              Z
 ---- ---------------- ---------- -------------- -------------- --------------
    1 O                    8.0000    -0.17255800    -0.14252813     0.00000000
    2 H                    1.0000    -0.17255800     1.93135313     0.00000000
    3 H                    1.0000     1.55302200    -0.79112813     0.00000000

 Vector    1  Occ=1.999989D+00  E=-2.055347D+01  Symmetry=a

 Vector    2  Occ=1.998695D+00  E=-1.317663D+00  Symmetry=a

 Vector    3  Occ=1.981213D+00  E=-7.066490D-01  Symmetry=a

 Vector    4  Occ=1.975896D+00  E=-5.715150D-01  Symmetry=a

 Vector    5  Occ=1.967907D+00  E=-5.202167D-01  Symmetry=a

 Vector    6  Occ=3.313036D-02  E=-3.123242D-02  Symmetry=a

 Vector    7  Occ=2.482695D-02  E=-2.574040D-02  Symmetry=a

 Vector    8  Occ=1.834334D-02  E=-1.588923D-02  Symmetry=a

 Vector    9  Occ=0.000000D+00  E= 3.052747D-01  Symmetry=a

 Vector   10  Occ=0.000000D+00  E= 3.353999D-01  Symmetry=a

 Vector   11  Occ=0.000000D+00  E= 6.114520D-01  Symmetry=a

 Vector   12  Occ=0.000000D+00  E= 6.810335D-01  Symmetry=a

 Vector   13  Occ=0.000000D+00  E= 8.158088D-01  Symmetry=a

 Vector   14  Occ=0.000000D+00  E= 8.308144D-01  Symmetry=a

 Vector   15  Occ=0.000000D+00  E= 9.722247D-01  Symmetry=a

 Vector   16  Occ=0.000000D+00  E= 1.129644D+00  Symmetry=a

 Vector   17  Occ=0.000000D+00  E= 1.180964D+00  Symmetry=a

 Vector   18  Occ=0.000000D+00  E= 1.277873D+00  Symmetry=a

         Total SCF energy =    -76.034057612586

 Vector    2  Occ=2.000000D+00  E=-1.317663D+00

 Vector    3  Occ=2.000000D+00  E=-7.066490D-01

 Vector    4  Occ=2.000000D+00  E=-5.715150D-01

 Vector    5  Occ=2.000000D+00  E=-5.202167D-01

 Vector    6  Occ=0.000000D+00  E=-3.123242D-02

 Vector    7  Occ=0.000000D+00  E=-2.574040D-02

 Vector    8  Occ=0.000000D+00  E=-1.588923D-02

 Vector    9  Occ=0.000000D+00  E= 3.052747D-01

 Vector   10  Occ=0.000000D+00  E= 3.353999D-01

 Vector   11  Occ=0.000000D+00  E= 6.114520D-01

 Vector   12  Occ=0.000000D+00  E= 6.810335D-01

 Vector   13  Occ=0.000000D+00  E= 8.158088D-01

 Vector   14  Occ=0.000000D+00  E= 8.308144D-01

 Vector   15  Occ=0.000000D+00  E= 9.722247D-01

       Multipole analysis of the density wrt the origin
       ------------------------------------------------

     L   x y z        total         open         nuclear
     -   - - -        -----         ----         -------
     0   0 0 0     -0.000000      0.000000     10.000000

     1   1 0 0      0.577363      0.000000     -0.000000
     1   0 1 0      0.440403      0.000000      0.000000
     1   0 0 1      0.000001      0.000000      0.000000

     2   2 0 0     -4.198387      0.000000      2.679864
     2   1 1 0     -0.837853      0.000000     -1.365155
     2   1 0 1      0.000001      0.000000      0.000000
     2   0 2 0     -3.306266      0.000000      4.518523
     2   0 1 1      0.000000      0.000000      0.000000

 CCSD total energy / hartree       =       -76.320614151560264
 Total times  cpu:      606.5s     wall:      611.9s
