============================== echo of input deck ==============================
 echo
 start H2O
 title "H2O"

 memory total 24 gb

 geometry units bohr
 symmetry c1
        O  0.00000000  0.00000000  0.00000000
        H  0.00000000  2.175271  0.00000000
        H  1.72558000 -0.64860000  0.00000000
 end

 basis spherical
   * library cc-pVTZ
 end

 mcscf
   active  8
   actelec 10
   multiplicity 1
   maxiter 40
   vectors input h2o.mos
   vectors output h2o.mos
 end

 task mcscf

 scf
   vectors input h2o.mos
   vectors output h2o-trash.mos
   noscf
 end

 tce
   2eorb
   2emet 13
   ccsd
 end

# set tce:print_integrals T
# set tce:qorb 8
# set tce:qela 5
# set tce:qelb 5

 set tce:qducc T
 set tce:nactv 3
 set tce:nonhf T
 set tce:ducc_model 6

 set tce:printtol 0.02

 task tce
================================================================================

 Output coordinates in a.u. (scale by  1.000000000 to convert to a.u.)

  No.       Tag          Charge          X              Y              Z
 ---- ---------------- ---------- -------------- -------------- --------------
    1 O                    8.0000    -0.17255800    -0.15266710     0.00000000
    2 H                    1.0000    -0.17255800     2.02260390     0.00000000
    3 H                    1.0000     1.55302200    -0.80126710     0.00000000

 Vector    1  Occ=1.999989D+00  E=-2.055715D+01  Symmetry=a

 Vector    2  Occ=1.998585D+00  E=-1.310050D+00  Symmetry=a

 Vector    3  Occ=1.980870D+00  E=-6.956193D-01  Symmetry=a

 Vector    4  Occ=1.975512D+00  E=-5.664150D-01  Symmetry=a

 Vector    5  Occ=1.962749D+00  E=-5.192509D-01  Symmetry=a

 Vector    6  Occ=3.844043D-02  E=-3.398560D-02  Symmetry=a

 Vector    7  Occ=2.521853D-02  E=-2.582815D-02  Symmetry=a

 Vector    8  Occ=1.863592D-02  E=-1.578365D-02  Symmetry=a

 Vector    9  Occ=0.000000D+00  E= 3.086768D-01  Symmetry=a

 Vector   10  Occ=0.000000D+00  E= 3.356706D-01  Symmetry=a

 Vector   11  Occ=0.000000D+00  E= 6.104699D-01  Symmetry=a

 Vector   12  Occ=0.000000D+00  E= 6.938569D-01  Symmetry=a

 Vector   13  Occ=0.000000D+00  E= 8.192407D-01  Symmetry=a

 Vector   14  Occ=0.000000D+00  E= 8.252901D-01  Symmetry=a

 Vector   15  Occ=0.000000D+00  E= 9.712718D-01  Symmetry=a

 Vector   16  Occ=0.000000D+00  E= 1.114747D+00  Symmetry=a

 Vector   17  Occ=0.000000D+00  E= 1.187609D+00  Symmetry=a

 Vector   18  Occ=0.000000D+00  E= 1.251790D+00  Symmetry=a

         Total SCF energy =    -76.021452136718

 Vector    2  Occ=2.000000D+00  E=-1.310050D+00

 Vector    3  Occ=2.000000D+00  E=-6.956193D-01

 Vector    4  Occ=2.000000D+00  E=-5.664150D-01

 Vector    5  Occ=2.000000D+00  E=-5.192509D-01

 Vector    6  Occ=0.000000D+00  E=-3.398560D-02

 Vector    7  Occ=0.000000D+00  E=-2.582815D-02

 Vector    8  Occ=0.000000D+00  E=-1.578365D-02

 Vector    9  Occ=0.000000D+00  E= 3.086768D-01

 Vector   10  Occ=0.000000D+00  E= 3.356706D-01

 Vector   11  Occ=0.000000D+00  E= 6.104699D-01

 Vector   12  Occ=0.000000D+00  E= 6.938569D-01

 Vector   13  Occ=0.000000D+00  E= 8.192407D-01

 Vector   14  Occ=0.000000D+00  E= 8.252901D-01

 Vector   15  Occ=0.000000D+00  E= 9.712718D-01

       Multipole analysis of the density wrt the origin
       ------------------------------------------------

     L   x y z        total         open         nuclear
     -   - - -        -----         ----         -------
     0   0 0 0     -0.000000      0.000000     10.000000

     1   1 0 0      0.572967      0.000000     -0.000000
     1   0 1 0      0.450039      0.000000      0.000000
     1   0 0 1      0.000001      0.000000      0.000000

     2   2 0 0     -4.235647      0.000000      2.679864
     2   1 1 0     -0.845900      0.000000     -1.382650
     2   1 0 1      0.000000      0.000000      0.000000
     2   0 2 0     -3.223439      0.000000      4.919413
     2   0 1 1      0.000000      0.000000      0.000000

 CCSD total energy / hartree       =       -76.309942035377532
 Total times  cpu:     1415.5s     wall:     1435.6s
