============================== echo of input deck ==============================
 echo
 start H2O
 title "H2O"

 memory total 24 gb

 geometry units bohr
 symmetry c1
        O  0.00000000  0.00000000  0.00000000
        H  0.00000000  2.2305745  0.00000000
        H  1.72558000 -0.64860000  0.00000000
 end

 basis spherical
   * library cc-pVTZ
 end

 mcscf
   active  8
   actelec 10
   multiplicity 1
   maxiter 40
   vectors input h2o.mos
   vectors output h2o.mos
 end

 task mcscf

 scf
   vectors input h2o.mos
   vectors output h2o-trash.mos
   noscf
 end

 tce
   2eorb
   2emet 13
   ccsd
 end

# set tce:print_integrals T
# set tce:qorb 8
# set tce:qela 5
# set tce:qelb 5

 set tce:qducc T
 set tce:nactv 3
 set tce:nonhf T
 set tce:ducc_model 6

 set tce:printtol 0.02

 task tce
================================================================================

 Output coordinates in a.u. (scale by  1.000000000 to convert to a.u.)

  No.       Tag          Charge          X              Y              Z
 ---- ---------------- ---------- -------------- -------------- --------------
    1 O                    8.0000    -0.17255800    -0.15819745     0.00000000
    2 H                    1.0000    -0.17255800     2.07237705     0.00000000
    3 H                    1.0000     1.55302200    -0.80679745     0.00000000

 Vector    1  Occ=1.999989D+00  E=-2.055907D+01  Symmetry=a

 Vector    2  Occ=1.998523D+00  E=-1.306498D+00  Symmetry=a

 Vector    3  Occ=1.980710D+00  E=-6.901640D-01  Symmetry=a

 Vector    4  Occ=1.975312D+00  E=-5.634147D-01  Symmetry=a

 Vector    5  Occ=1.959508D+00  E=-5.188408D-01  Symmetry=a

 Vector    6  Occ=4.176564D-02  E=-3.556075D-02  Symmetry=a

 Vector    7  Occ=2.542255D-02  E=-2.586815D-02  Symmetry=a

 Vector    8  Occ=1.876822D-02  E=-1.571802D-02  Symmetry=a

 Vector    9  Occ=0.000000D+00  E= 3.101253D-01  Symmetry=a

 Vector   10  Occ=0.000000D+00  E= 3.358294D-01  Symmetry=a

 Vector   11  Occ=0.000000D+00  E= 6.097957D-01  Symmetry=a

 Vector   12  Occ=0.000000D+00  E= 7.008288D-01  Symmetry=a

 Vector   13  Occ=0.000000D+00  E= 8.214196D-01  Symmetry=a

 Vector   14  Occ=0.000000D+00  E= 8.223074D-01  Symmetry=a

 Vector   15  Occ=0.000000D+00  E= 9.706561D-01  Symmetry=a

 Vector   16  Occ=0.000000D+00  E= 1.106722D+00  Symmetry=a

 Vector   17  Occ=0.000000D+00  E= 1.182320D+00  Symmetry=a

 Vector   18  Occ=0.000000D+00  E= 1.246801D+00  Symmetry=a

         Total SCF energy =    -76.013979071962

 Vector    2  Occ=2.000000D+00  E=-1.306498D+00

 Vector    3  Occ=2.000000D+00  E=-6.901640D-01

 Vector    4  Occ=2.000000D+00  E=-5.634147D-01

 Vector    5  Occ=2.000000D+00  E=-5.188408D-01

 Vector    6  Occ=0.000000D+00  E=-3.556075D-02

 Vector    7  Occ=0.000000D+00  E=-2.586815D-02

 Vector    8  Occ=0.000000D+00  E=-1.571802D-02

 Vector    9  Occ=0.000000D+00  E= 3.101253D-01

 Vector   10  Occ=0.000000D+00  E= 3.358294D-01

 Vector   11  Occ=0.000000D+00  E= 6.097957D-01

 Vector   12  Occ=0.000000D+00  E= 7.008288D-01

 Vector   13  Occ=0.000000D+00  E= 8.214196D-01

 Vector   14  Occ=0.000000D+00  E= 8.223074D-01

 Vector   15  Occ=0.000000D+00  E= 9.706561D-01

       Multipole analysis of the density wrt the origin
       ------------------------------------------------

     L   x y z        total         open         nuclear
     -   - - -        -----         ----         -------
     0   0 0 0     -0.000000      0.000000     10.000000

     1   1 0 0      0.570833      0.000000     -0.000000
     1   0 1 0      0.453832      0.000000     -0.000000
     1   0 0 1     -0.000000      0.000000      0.000000

     2   2 0 0     -4.255071      0.000000      2.679864
     2   1 1 0     -0.849766      0.000000     -1.392194
     2   1 0 1     -0.000000      0.000000      0.000000
     2   0 2 0     -3.179103      0.000000      5.145880
     2   0 1 1     -0.000000      0.000000      0.000000

 CCSD total energy / hartree       =       -76.303574607264025
 Total times  cpu:      598.8s     wall:      604.1s
