============================== echo of input deck ==============================
 echo
 start H2O
 title "H2O"

 memory total 24 gb

 geometry units bohr
 symmetry c1
        O  0.00000000  0.00000000  0.00000000
        H  0.00000000  2.4886575  0.00000000
        H  1.72558000 -0.64860000  0.00000000
 end

 basis spherical
   * library cc-pVTZ
 end

 mcscf
   active  8
   actelec 10
   multiplicity 1
   maxiter 40
   vectors input h2o.mos
   vectors output h2o.mos
 end

 task mcscf

 scf
   vectors input h2o.mos
   vectors output h2o-trash.mos
   noscf
 end

 tce
   2eorb
   2emet 13
   ccsd
 end

# set tce:print_integrals T
# set tce:qorb 8
# set tce:qela 5
# set tce:qelb 5

 set tce:qducc T
 set tce:nactv 3
 set tce:nonhf T
 set tce:ducc_model 6

 set tce:printtol 0.02

 task tce
================================================================================

 Output coordinates in a.u. (scale by  1.000000000 to convert to a.u.)

  No.       Tag          Charge          X              Y              Z
 ---- ---------------- ---------- -------------- -------------- --------------
    1 O                    8.0000    -0.17255800    -0.18400575     0.00000000
    2 H                    1.0000    -0.17255800     2.30465175     0.00000000
    3 H                    1.0000     1.55302200    -0.83260575     0.00000000

 Vector    1  Occ=1.999990D+00  E=-2.056817D+01  Symmetry=a

 Vector    2  Occ=1.998246D+00  E=-1.295494D+00  Symmetry=a

 Vector    3  Occ=1.980279D+00  E=-6.708619D-01  Symmetry=a

 Vector    4  Occ=1.974508D+00  E=-5.473058D-01  Symmetry=a

 Vector    5  Occ=1.938949D+00  E=-5.189810D-01  Symmetry=a

 Vector    6  Occ=6.269455D-02  E=-4.455271D-02  Symmetry=a

 Vector    7  Occ=2.624804D-02  E=-2.604423D-02  Symmetry=a

 Vector    8  Occ=1.908596D-02  E=-1.530339D-02  Symmetry=a

 Vector    9  Occ=0.000000D+00  E= 3.154391D-01  Symmetry=a

 Vector   10  Occ=0.000000D+00  E= 3.387734D-01  Symmetry=a

 Vector   11  Occ=0.000000D+00  E= 6.072313D-01  Symmetry=a

 Vector   12  Occ=0.000000D+00  E= 7.338515D-01  Symmetry=a

 Vector   13  Occ=0.000000D+00  E= 8.085722D-01  Symmetry=a

 Vector   14  Occ=0.000000D+00  E= 8.337760D-01  Symmetry=a

 Vector   15  Occ=0.000000D+00  E= 9.664838D-01  Symmetry=a

 Vector   16  Occ=0.000000D+00  E= 1.071074D+00  Symmetry=a

 Vector   17  Occ=0.000000D+00  E= 1.119272D+00  Symmetry=a

 Vector   18  Occ=0.000000D+00  E= 1.267623D+00  Symmetry=a

         Total SCF energy =    -75.976364402614

 Vector    2  Occ=2.000000D+00  E=-1.295494D+00

 Vector    3  Occ=2.000000D+00  E=-6.708619D-01

 Vector    4  Occ=2.000000D+00  E=-5.473058D-01

 Vector    5  Occ=2.000000D+00  E=-5.189810D-01

 Vector    6  Occ=0.000000D+00  E=-4.455271D-02

 Vector    7  Occ=0.000000D+00  E=-2.604423D-02

 Vector    8  Occ=0.000000D+00  E=-1.530339D-02

 Vector    9  Occ=0.000000D+00  E= 3.154391D-01

 Vector   10  Occ=0.000000D+00  E= 3.387734D-01

 Vector   11  Occ=0.000000D+00  E= 6.072313D-01

 Vector   12  Occ=0.000000D+00  E= 7.338515D-01

 Vector   13  Occ=0.000000D+00  E= 8.085722D-01

 Vector   14  Occ=0.000000D+00  E= 8.337760D-01

 Vector   15  Occ=0.000000D+00  E= 9.664838D-01

       Multipole analysis of the density wrt the origin
       ------------------------------------------------

     L   x y z        total         open         nuclear
     -   - - -        -----         ----         -------
     0   0 0 0     -0.000000      0.000000     10.000000

     1   1 0 0      0.562904      0.000000     -0.000000
     1   0 1 0      0.454511      0.000000     -0.000000
     1   0 0 1      0.000000      0.000000      0.000000

     2   2 0 0     -4.336359      0.000000      2.679864
     2   1 1 0     -0.862068      0.000000     -1.436728
     2   1 0 1     -0.000000      0.000000      0.000000
     2   0 2 0     -2.994391      0.000000      6.275517
     2   0 1 1     -0.000000      0.000000      0.000000

 CCSD total energy / hartree       =       -76.271731427298988
 Total times  cpu:      609.4s     wall:      614.6s
