============================== echo of input deck ==============================
 echo
 start HF
 title "HF"

 memory total 24 gb

 geometry units bohr
 symmetry c1
        F  0.00000000  0.00000000  0.00000000
        H  0.00000000  3.898125  0.00000000
 end

 basis spherical
   * library cc-pVTZ
 end

 mcscf
   active  8
   actelec 10
   multiplicity 1
   maxiter 40
   vectors input HF.mos
   vectors output HF.mos
 end

 task mcscf

 scf
   vectors input HF.mos
   vectors output HF-trash.mos
   noscf
 end

 tce
   2eorb
   2emet 13
   ccsd
   maxiter 500
 end

# set tce:print_integrals T
# set tce:qorb 8
# set tce:qela 5
# set tce:qelb 5

 set tce:qducc T
 set tce:nactv 3
 set tce:nonhf T
 set tce:ducc_model 3

 set tce:printtol 0.02

 task tce
================================================================================

 Output coordinates in a.u. (scale by  1.000000000 to convert to a.u.)

  No.       Tag          Charge          X              Y              Z
 ---- ---------------- ---------- -------------- -------------- --------------
    1 F                    9.0000     0.00000000    -0.38981250     0.00000000
    2 H                    1.0000     0.00000000     3.50831250     0.00000000

 Vector    1  Occ=2.000000D+00  E=-2.636447D+01  Symmetry=a

 Vector    2  Occ=1.999153D+00  E=-1.556354D+00  Symmetry=a

 Vector    3  Occ=1.997641D+00  E=-6.950428D-01  Symmetry=a

 Vector    4  Occ=1.996590D+00  E=-6.931140D-01  Symmetry=a

 Vector    5  Occ=1.467525D+00  E=-4.777996D-01  Symmetry=a

 Vector    6  Occ=5.328065D-01  E=-1.855690D-01  Symmetry=a

 Vector    7  Occ=3.280986D-03  E=-6.730843D-03  Symmetry=a

 Vector    8  Occ=3.003420D-03  E=-6.660458D-03  Symmetry=a

 Vector    9  Occ=0.000000D+00  E= 3.764745D-01  Symmetry=a

 Vector   10  Occ=0.000000D+00  E= 7.435160D-01  Symmetry=a

 Vector   11  Occ=0.000000D+00  E= 7.435343D-01  Symmetry=a

 Vector   12  Occ=0.000000D+00  E= 7.591804D-01  Symmetry=a

 Vector   13  Occ=0.000000D+00  E= 9.596425D-01  Symmetry=a

 Vector   14  Occ=0.000000D+00  E= 9.597144D-01  Symmetry=a

 Vector   15  Occ=0.000000D+00  E= 1.013973D+00  Symmetry=a

 Vector   16  Occ=0.000000D+00  E= 1.430783D+00  Symmetry=a

 Vector   17  Occ=0.000000D+00  E= 2.209882D+00  Symmetry=a

 Vector   18  Occ=0.000000D+00  E= 2.233591D+00  Symmetry=a

         Total SCF energy =    -99.754182733205

 Vector    2  Occ=2.000000D+00  E=-1.556354D+00

 Vector    3  Occ=2.000000D+00  E=-6.950428D-01

 Vector    4  Occ=2.000000D+00  E=-6.931140D-01

 Vector    5  Occ=2.000000D+00  E=-4.777996D-01

 Vector    6  Occ=0.000000D+00  E=-1.855690D-01

 Vector    7  Occ=0.000000D+00  E=-6.730843D-03

 Vector    8  Occ=0.000000D+00  E=-6.660458D-03

 Vector    9  Occ=0.000000D+00  E= 3.764745D-01

 Vector   10  Occ=0.000000D+00  E= 7.435160D-01

 Vector   11  Occ=0.000000D+00  E= 7.435343D-01

 Vector   12  Occ=0.000000D+00  E= 7.591804D-01

 Vector   13  Occ=0.000000D+00  E= 9.596425D-01

 Vector   14  Occ=0.000000D+00  E= 9.597144D-01

 Vector   15  Occ=0.000000D+00  E= 1.013973D+00

       Multipole analysis of the density wrt the origin
       ------------------------------------------------

     L   x y z        total         open         nuclear
     -   - - -        -----         ----         -------
     0   0 0 0     -0.000000      0.000000     10.000000

     1   1 0 0      0.000000      0.000000      0.000000
     1   0 1 0      0.480247      0.000000      0.000000
     1   0 0 1     -0.000000      0.000000      0.000000

     2   2 0 0     -4.575195      0.000000      0.000000
     2   1 1 0     -0.000000      0.000000      0.000000
     2   1 0 1     -0.001456      0.000000      0.000000
     2   0 2 0     -1.897692      0.000000     13.675841
     2   0 1 1      0.000000      0.000000      0.000000

 CCSD total energy / hartree       =      -100.134744162296116
 Total times  cpu:      122.7s     wall:      227.1s
