============================== echo of input deck ==============================
 echo
 start H2
 title "H2"

 memory total 24 gb

 geometry units bohr
 symmetry c1
        H  0.00000000  0.00000000  0.00000000
        H  0.00000000  1.30  0.00000000
 end

 basis
   * library cc-pVQZ
 end

 mcscf
   active  10
   actelec 2
   multiplicity 1
   maxiter 40
   vectors input H2.mos
   vectors output H2.mos
 end

 task mcscf

 scf
   vectors input H2.mos
   vectors output H2-1.30.mos
   noscf
 end

 tce
   2eorb
   2emet 13
   ccsd
   maxiter 300
   lshift 0.8
 end

# set tce:print_integrals T
# set tce:qorb 10
# set tce:qela 1
# set tce:qelb 1

 set tce:qducc T
 set tce:nactv 9
 set tce:nonhf T
 set tce:ducc_model 6

 set tce:printtol 0.02

 task tce
================================================================================

 Output coordinates in a.u. (scale by  1.000000000 to convert to a.u.)

  No.       Tag          Charge          X              Y              Z
 ---- ---------------- ---------- -------------- -------------- --------------
    1 H                    1.0000     0.00000000    -0.65000000     0.00000000
    2 H                    1.0000     0.00000000     0.65000000     0.00000000

 Vector    1  Occ=1.966883D+00  E=-6.371776D-01  Symmetry=a

 Vector    2  Occ=1.737366D-02  E=-1.266010D-02  Symmetry=a

 Vector    3  Occ=6.449188D-03  E=-5.648422D-03  Symmetry=a

 Vector    4  Occ=4.283536D-03  E=-3.944982D-03  Symmetry=a

 Vector    5  Occ=4.283536D-03  E=-3.944982D-03  Symmetry=a

 Vector    6  Occ=1.843494D-04  E=-3.051875D-04  Symmetry=a

 Vector    7  Occ=1.796584D-04  E=-3.050535D-04  Symmetry=a

 Vector    8  Occ=1.392168D-04  E=-2.329525D-04  Symmetry=a

 Vector    9  Occ=1.392168D-04  E=-2.329525D-04  Symmetry=a

 Vector   10  Occ=8.500540D-05  E=-1.767179D-04  Symmetry=a

 Vector   11  Occ=0.000000D+00  E= 3.670584D-01  Symmetry=a

 Vector   12  Occ=0.000000D+00  E= 8.271784D-01  Symmetry=a

 Vector   13  Occ=0.000000D+00  E= 1.073380D+00  Symmetry=a

 Vector   14  Occ=0.000000D+00  E= 1.234179D+00  Symmetry=a

 Vector   15  Occ=0.000000D+00  E= 1.234179D+00  Symmetry=a

 Vector   16  Occ=0.000000D+00  E= 1.272733D+00  Symmetry=a

 Vector   17  Occ=0.000000D+00  E= 1.272733D+00  Symmetry=a

 Vector   18  Occ=0.000000D+00  E= 1.493387D+00  Symmetry=a

 Vector   19  Occ=0.000000D+00  E= 1.941009D+00  Symmetry=a

 Vector   20  Occ=0.000000D+00  E= 1.952657D+00  Symmetry=a

         Total SCF energy =     -1.131746753502

 Vector    1  Occ=2.000000D+00  E=-6.371776D-01

 Vector    2  Occ=0.000000D+00  E=-1.266010D-02

 Vector    3  Occ=0.000000D+00  E=-5.648422D-03

 Vector    4  Occ=0.000000D+00  E=-3.944982D-03

 Vector    5  Occ=0.000000D+00  E=-3.944982D-03

 Vector    6  Occ=0.000000D+00  E=-3.051875D-04

 Vector    7  Occ=0.000000D+00  E=-3.050535D-04

 Vector    8  Occ=0.000000D+00  E=-2.329525D-04

 Vector    9  Occ=0.000000D+00  E=-2.329525D-04

 Vector   10  Occ=0.000000D+00  E=-1.767179D-04

 Vector   11  Occ=0.000000D+00  E= 3.670584D-01

 Vector   12  Occ=0.000000D+00  E= 8.271784D-01

       Multipole analysis of the density wrt the origin
       ------------------------------------------------

     L   x y z        total         open         nuclear
     -   - - -        -----         ----         -------
     0   0 0 0     -0.000000      0.000000      2.000000

     1   1 0 0      0.000000      0.000000      0.000000
     1   0 1 0      0.000000      0.000000      0.000000
     1   0 0 1      0.000000      0.000000      0.000000

     2   2 0 0     -1.465598      0.000000      0.000000
     2   1 1 0      0.000000      0.000000      0.000000
     2   1 0 1     -0.000000      0.000000      0.000000
     2   0 2 0     -1.060028      0.000000      0.845000
     2   0 1 1     -0.000000      0.000000      0.000000

 CCSD total energy / hartree       =        -1.171677363776493
 Total times  cpu:      141.8s     wall:      146.4s
