============================== echo of input deck ==============================
 echo
 start H2
 title "H2"

 memory total 24 gb

 geometry units bohr
 symmetry c1
        H  0.00000000  0.00000000  0.00000000
        H  0.00000000  2.65  0.00000000
 end

 basis
   * library cc-pVQZ
 end

 mcscf
   active  10
   actelec 2
   multiplicity 1
   maxiter 40
   vectors input H2.mos
   vectors output H2.mos
 end

 task mcscf

 scf
   vectors input H2.mos
   vectors output H2-2.65.mos
   noscf
 end

 tce
   2eorb
   2emet 13
   ccsd
   maxiter 300
   lshift 0.8
 end

# set tce:print_integrals T
# set tce:qorb 10
# set tce:qela 1
# set tce:qelb 1

 set tce:qducc T
 set tce:nactv 9
 set tce:nonhf T
 set tce:ducc_model 6

 set tce:printtol 0.02

 task tce
================================================================================

 Output coordinates in a.u. (scale by  1.000000000 to convert to a.u.)

  No.       Tag          Charge          X              Y              Z
 ---- ---------------- ---------- -------------- -------------- --------------
    1 H                    1.0000     0.00000000    -1.32500000     0.00000000
    2 H                    1.0000     0.00000000     1.32500000     0.00000000

 Vector    1  Occ=1.858100D+00  E=-4.711553D-01  Symmetry=a

 Vector    2  Occ=1.302203D-01  E=-4.988331D-02  Symmetry=a

 Vector    3  Occ=4.021809D-03  E=-2.567559D-03  Symmetry=a

 Vector    4  Occ=3.397426D-03  E=-2.144266D-03  Symmetry=a

 Vector    5  Occ=3.397426D-03  E=-2.144266D-03  Symmetry=a

 Vector    6  Occ=3.239626D-04  E=-2.777151D-04  Symmetry=a

 Vector    7  Occ=1.742280D-04  E=-1.744451D-04  Symmetry=a

 Vector    8  Occ=1.547867D-04  E=-1.523689D-04  Symmetry=a

 Vector    9  Occ=1.547867D-04  E=-1.523689D-04  Symmetry=a

 Vector   10  Occ=5.505842D-05  E=-6.925989D-05  Symmetry=a

 Vector   11  Occ=0.000000D+00  E= 4.642156D-01  Symmetry=a

 Vector   12  Occ=0.000000D+00  E= 8.511304D-01  Symmetry=a

 Vector   13  Occ=0.000000D+00  E= 1.067975D+00  Symmetry=a

 Vector   14  Occ=0.000000D+00  E= 1.380289D+00  Symmetry=a

 Vector   15  Occ=0.000000D+00  E= 1.380289D+00  Symmetry=a

 Vector   16  Occ=0.000000D+00  E= 1.537630D+00  Symmetry=a

 Vector   17  Occ=0.000000D+00  E= 1.537630D+00  Symmetry=a

 Vector   18  Occ=0.000000D+00  E= 1.958627D+00  Symmetry=a

 Vector   19  Occ=0.000000D+00  E= 1.958627D+00  Symmetry=a

 Vector   20  Occ=0.000000D+00  E= 2.014304D+00  Symmetry=a

         Total SCF energy =     -1.021166184438

 Vector    1  Occ=2.000000D+00  E=-4.711553D-01

 Vector    2  Occ=0.000000D+00  E=-4.988331D-02

 Vector    3  Occ=0.000000D+00  E=-2.567559D-03

 Vector    4  Occ=0.000000D+00  E=-2.144266D-03

 Vector    5  Occ=0.000000D+00  E=-2.144266D-03

 Vector    6  Occ=0.000000D+00  E=-2.777151D-04

 Vector    7  Occ=0.000000D+00  E=-1.744451D-04

 Vector    8  Occ=0.000000D+00  E=-1.523689D-04

 Vector    9  Occ=0.000000D+00  E=-1.523689D-04

 Vector   10  Occ=0.000000D+00  E=-6.925989D-05

 Vector   11  Occ=0.000000D+00  E= 4.642156D-01

 Vector   12  Occ=0.000000D+00  E= 8.511304D-01

       Multipole analysis of the density wrt the origin
       ------------------------------------------------

     L   x y z        total         open         nuclear
     -   - - -        -----         ----         -------
     0   0 0 0     -0.000000      0.000000      2.000000

     1   1 0 0     -0.000000      0.000000      0.000000
     1   0 1 0     -0.000000      0.000000      0.000000
     1   0 0 1      0.000000      0.000000      0.000000

     2   2 0 0     -2.078361      0.000000      0.000000
     2   1 1 0     -0.000000      0.000000      0.000000
     2   1 0 1     -0.000000      0.000000      0.000000
     2   0 2 0     -0.969977      0.000000      3.511250
     2   0 1 1      0.000000      0.000000      0.000000

 CCSD total energy / hartree       =        -1.081214234102772
 Total times  cpu:      146.1s     wall:      149.5s
