============================== echo of input deck ==============================
 echo
 start H2
 title "H2"

 memory total 24 gb

 geometry units bohr
 symmetry c1
        H  0.00000000  0.00000000  0.00000000
        H  0.00000000  3.65  0.00000000
 end

 basis
   * library cc-pVQZ
 end

 mcscf
   active  10
   actelec 2
   multiplicity 1
   maxiter 40
   vectors input H2.mos
   vectors output H2.mos
 end

 task mcscf

 scf
   vectors input H2.mos
   vectors output H2-3.65.mos
   noscf
 end

 tce
   2eorb
   2emet 13
   ccsd
   maxiter 300
   lshift 0.8
 end

# set tce:print_integrals T
# set tce:qorb 10
# set tce:qela 1
# set tce:qelb 1

 set tce:qducc T
 set tce:nactv 9
 set tce:nonhf T
 set tce:ducc_model 6

 set tce:printtol 0.02

 task tce
================================================================================

 Output coordinates in a.u. (scale by  1.000000000 to convert to a.u.)

  No.       Tag          Charge          X              Y              Z
 ---- ---------------- ---------- -------------- -------------- --------------
    1 H                    1.0000     0.00000000    -1.82500000     0.00000000
    2 H                    1.0000     0.00000000     1.82500000     0.00000000

 Vector    1  Occ=1.617942D+00  E=-3.873179D-01  Symmetry=a

 Vector    2  Occ=3.767994D-01  E=-1.129781D-01  Symmetry=a

 Vector    3  Occ=2.068945D-03  E=-1.168109D-03  Symmetry=a

 Vector    4  Occ=1.416436D-03  E=-8.090718D-04  Symmetry=a

 Vector    5  Occ=1.416436D-03  E=-8.090718D-04  Symmetry=a

 Vector    6  Occ=1.514139D-04  E=-1.019729D-04  Symmetry=a

 Vector    7  Occ=6.205382D-05  E=-5.148521D-05  Symmetry=a

 Vector    8  Occ=6.205382D-05  E=-5.148521D-05  Symmetry=a

 Vector    9  Occ=5.857037D-05  E=-5.097703D-05  Symmetry=a

 Vector   10  Occ=2.274261D-05  E=-2.445300D-05  Symmetry=a

 Vector   11  Occ=0.000000D+00  E= 4.781825D-01  Symmetry=a

 Vector   12  Occ=0.000000D+00  E= 8.074712D-01  Symmetry=a

 Vector   13  Occ=0.000000D+00  E= 1.015282D+00  Symmetry=a

 Vector   14  Occ=0.000000D+00  E= 1.399483D+00  Symmetry=a

 Vector   15  Occ=0.000000D+00  E= 1.399483D+00  Symmetry=a

 Vector   16  Occ=0.000000D+00  E= 1.747999D+00  Symmetry=a

 Vector   17  Occ=0.000000D+00  E= 1.747999D+00  Symmetry=a

 Vector   18  Occ=0.000000D+00  E= 1.802914D+00  Symmetry=a

 Vector   19  Occ=0.000000D+00  E= 1.874465D+00  Symmetry=a

 Vector   20  Occ=0.000000D+00  E= 1.874465D+00  Symmetry=a

         Total SCF energy =     -0.927046681754

 Vector    1  Occ=2.000000D+00  E=-3.873179D-01

 Vector    2  Occ=0.000000D+00  E=-1.129781D-01

 Vector    3  Occ=0.000000D+00  E=-1.168109D-03

 Vector    4  Occ=0.000000D+00  E=-8.090718D-04

 Vector    5  Occ=0.000000D+00  E=-8.090718D-04

 Vector    6  Occ=0.000000D+00  E=-1.019729D-04

 Vector    7  Occ=0.000000D+00  E=-5.148521D-05

 Vector    8  Occ=0.000000D+00  E=-5.148521D-05

 Vector    9  Occ=0.000000D+00  E=-5.097703D-05

 Vector   10  Occ=0.000000D+00  E=-2.445300D-05

 Vector   11  Occ=0.000000D+00  E= 4.781825D-01

 Vector   12  Occ=0.000000D+00  E= 8.074712D-01

       Multipole analysis of the density wrt the origin
       ------------------------------------------------

     L   x y z        total         open         nuclear
     -   - - -        -----         ----         -------
     0   0 0 0     -0.000000      0.000000      2.000000

     1   1 0 0     -0.000000      0.000000      0.000000
     1   0 1 0     -0.000000      0.000000      0.000000
     1   0 0 1      0.000000      0.000000      0.000000

     2   2 0 0     -2.223658      0.000000      0.000000
     2   1 1 0      0.000000      0.000000      0.000000
     2   1 0 1     -0.000000      0.000000      0.000000
     2   0 2 0     -0.938296      0.000000      6.661250
     2   0 1 1      0.000000      0.000000      0.000000

 CCSD total energy / hartree       =        -1.025612420384509
 Total times  cpu:      138.4s     wall:      142.0s
