============================== echo of input deck ==============================
 echo
 start H2
 title "H2"

 memory total 24 gb

 geometry units bohr
 symmetry c1
        H  0.00000000  0.00000000  0.00000000
        H  0.00000000  4.00  0.00000000
 end

 basis
   * library cc-pVQZ
 end

 mcscf
   active  10
   actelec 2
   multiplicity 1
   maxiter 40
   vectors input H2.mos
   vectors output H2.mos
 end

 task mcscf

 scf
   vectors input H2.mos
   vectors output H2-4.00.mos
   noscf
 end

 tce
   2eorb
   2emet 13
   ccsd
   maxiter 300
   lshift 0.8
 end

# set tce:print_integrals T
# set tce:qorb 10
# set tce:qela 1
# set tce:qelb 1

 set tce:qducc T
 set tce:nactv 9
 set tce:nonhf T
 set tce:ducc_model 6

 set tce:printtol 0.02

 task tce
================================================================================

 Output coordinates in a.u. (scale by  1.000000000 to convert to a.u.)

  No.       Tag          Charge          X              Y              Z
 ---- ---------------- ---------- -------------- -------------- --------------
    1 H                    1.0000     0.00000000    -2.00000000     0.00000000
    2 H                    1.0000     0.00000000     2.00000000     0.00000000

 Vector    1  Occ=1.512667D+00  E=-3.612353D-01  Symmetry=a

 Vector    2  Occ=4.837979D-01  E=-1.379621D-01  Symmetry=a

 Vector    3  Occ=1.532966D-03  E=-8.379821D-04  Symmetry=a

 Vector    4  Occ=9.020884D-04  E=-5.096092D-04  Symmetry=a

 Vector    5  Occ=9.020884D-04  E=-5.096092D-04  Symmetry=a

 Vector    6  Occ=8.777587D-05  E=-5.703942D-05  Symmetry=a

 Vector    7  Occ=3.449705D-05  E=-2.840722D-05  Symmetry=a

 Vector    8  Occ=3.449705D-05  E=-2.840722D-05  Symmetry=a

 Vector    9  Occ=2.954727D-05  E=-2.616103D-05  Symmetry=a

 Vector   10  Occ=1.174889D-05  E=-1.332211D-05  Symmetry=a

 Vector   11  Occ=0.000000D+00  E= 4.738280D-01  Symmetry=a

 Vector   12  Occ=0.000000D+00  E= 8.061803D-01  Symmetry=a

 Vector   13  Occ=0.000000D+00  E= 9.748112D-01  Symmetry=a

 Vector   14  Occ=0.000000D+00  E= 1.384104D+00  Symmetry=a

 Vector   15  Occ=0.000000D+00  E= 1.384104D+00  Symmetry=a

 Vector   16  Occ=0.000000D+00  E= 1.743307D+00  Symmetry=a

 Vector   17  Occ=0.000000D+00  E= 1.793810D+00  Symmetry=a

 Vector   18  Occ=0.000000D+00  E= 1.793810D+00  Symmetry=a

 Vector   19  Occ=0.000000D+00  E= 1.903492D+00  Symmetry=a

 Vector   20  Occ=0.000000D+00  E= 1.903492D+00  Symmetry=a

         Total SCF energy =     -0.899592286825

 Vector    1  Occ=2.000000D+00  E=-3.612353D-01

 Vector    2  Occ=0.000000D+00  E=-1.379621D-01

 Vector    3  Occ=0.000000D+00  E=-8.379821D-04

 Vector    4  Occ=0.000000D+00  E=-5.096092D-04

 Vector    5  Occ=0.000000D+00  E=-5.096092D-04

 Vector    6  Occ=0.000000D+00  E=-5.703942D-05

 Vector    7  Occ=0.000000D+00  E=-2.840722D-05

 Vector    8  Occ=0.000000D+00  E=-2.840722D-05

 Vector    9  Occ=0.000000D+00  E=-2.616103D-05

 Vector   10  Occ=0.000000D+00  E=-1.332211D-05

 Vector   11  Occ=0.000000D+00  E= 4.738280D-01

 Vector   12  Occ=0.000000D+00  E= 8.061803D-01

       Multipole analysis of the density wrt the origin
       ------------------------------------------------

     L   x y z        total         open         nuclear
     -   - - -        -----         ----         -------
     0   0 0 0     -0.000000      0.000000      2.000000

     1   1 0 0     -0.000000      0.000000      0.000000
     1   0 1 0     -0.000000      0.000000      0.000000
     1   0 0 1      0.000000      0.000000      0.000000

     2   2 0 0     -2.222437      0.000000      0.000000
     2   1 1 0     -0.000000      0.000000      0.000000
     2   1 0 1     -0.000000      0.000000      0.000000
     2   0 2 0     -0.974630      0.000000      8.000000
     2   0 1 1      0.000000      0.000000      0.000000

 CCSD total energy / hartree       =        -1.015776614693930
 Total times  cpu:      139.5s     wall:      143.1s
