============================== echo of input deck ==============================
 echo
 start H2
 title "H2"

 memory total 24 gb

 geometry units bohr
 symmetry c1
        H  0.00000000  0.00000000  0.00000000
        H  0.00000000  4.80  0.00000000
 end

 basis
   * library cc-pVQZ
 end

 mcscf
   active  10
   actelec 2
   multiplicity 1
   maxiter 40
   vectors input H2.mos
   vectors output H2.mos
 end

 task mcscf

 scf
   vectors input H2.mos
   vectors output H2-4.80.mos
   noscf
 end

 tce
   2eorb
   2emet 13
   ccsd
   maxiter 300
   lshift 0.8
 end

# set tce:print_integrals T
# set tce:qorb 10
# set tce:qela 1
# set tce:qelb 1

 set tce:qducc T
 set tce:nactv 9
 set tce:nonhf T
 set tce:ducc_model 6

 set tce:printtol 0.02

 task tce
================================================================================

 Output coordinates in a.u. (scale by  1.000000000 to convert to a.u.)

  No.       Tag          Charge          X              Y              Z
 ---- ---------------- ---------- -------------- -------------- --------------
    1 H                    1.0000     0.00000000    -2.40000000     0.00000000
    2 H                    1.0000     0.00000000     2.40000000     0.00000000

 Vector    1  Occ=1.301576D+00  E=-3.138103D-01  Symmetry=a

 Vector    2  Occ=6.971668D-01  E=-1.855357D-01  Symmetry=a

 Vector    3  Occ=6.806195D-04  E=-3.554531D-04  Symmetry=a

 Vector    4  Occ=2.709966D-04  E=-1.530104D-04  Symmetry=a

 Vector    5  Occ=2.709966D-04  E=-1.530104D-04  Symmetry=a

 Vector    6  Occ=1.716019D-05  E=-1.089680D-05  Symmetry=a

 Vector    7  Occ=5.245951D-06  E=-4.685879D-06  Symmetry=a

 Vector    8  Occ=5.245951D-06  E=-4.685879D-06  Symmetry=a

 Vector    9  Occ=4.679500D-06  E=-4.488224D-06  Symmetry=a

 Vector   10  Occ=1.976157D-06  E=-2.583645D-06  Symmetry=a

 Vector   11  Occ=0.000000D+00  E= 4.412349D-01  Symmetry=a

 Vector   12  Occ=0.000000D+00  E= 7.452352D-01  Symmetry=a

 Vector   13  Occ=0.000000D+00  E= 8.000298D-01  Symmetry=a

 Vector   14  Occ=0.000000D+00  E= 1.189721D+00  Symmetry=a

 Vector   15  Occ=0.000000D+00  E= 1.189721D+00  Symmetry=a

 Vector   16  Occ=0.000000D+00  E= 1.714779D+00  Symmetry=a

 Vector   17  Occ=0.000000D+00  E= 1.799195D+00  Symmetry=a

 Vector   18  Occ=0.000000D+00  E= 1.799195D+00  Symmetry=a

 Vector   19  Occ=0.000000D+00  E= 1.919420D+00  Symmetry=a

 Vector   20  Occ=0.000000D+00  E= 2.001589D+00  Symmetry=a

         Total SCF energy =     -0.847666548229

 Vector    1  Occ=2.000000D+00  E=-3.138103D-01

 Vector    2  Occ=0.000000D+00  E=-1.855357D-01

 Vector    3  Occ=0.000000D+00  E=-3.554531D-04

 Vector    4  Occ=0.000000D+00  E=-1.530104D-04

 Vector    5  Occ=0.000000D+00  E=-1.530104D-04

 Vector    6  Occ=0.000000D+00  E=-1.089680D-05

 Vector    7  Occ=0.000000D+00  E=-4.685879D-06

 Vector    8  Occ=0.000000D+00  E=-4.685879D-06

 Vector    9  Occ=0.000000D+00  E=-4.488224D-06

 Vector   10  Occ=0.000000D+00  E=-2.583645D-06

 Vector   11  Occ=0.000000D+00  E= 4.412349D-01

 Vector   12  Occ=0.000000D+00  E= 7.452352D-01

       Multipole analysis of the density wrt the origin
       ------------------------------------------------

     L   x y z        total         open         nuclear
     -   - - -        -----         ----         -------
     0   0 0 0     -0.000000      0.000000      2.000000

     1   1 0 0     -0.000000      0.000000      0.000000
     1   0 1 0     -0.000000      0.000000      0.000000
     1   0 0 1      0.000000      0.000000      0.000000

     2   2 0 0     -2.175247      0.000000      0.000000
     2   1 1 0     -0.000000      0.000000      0.000000
     2   1 0 1      0.000000      0.000000      0.000000
     2   0 2 0     -1.132370      0.000000     11.520000
     2   0 1 1      0.000000      0.000000      0.000000

 CCSD total energy / hartree       =        -1.004698730001295
 Total times  cpu:      142.2s     wall:      145.4s
