============================== echo of input deck ==============================
 echo
 start H2
 title "H2"

 memory total 24 gb

 geometry units bohr
 symmetry c1
        H  0.00000000  0.00000000  0.00000000
        H  0.00000000  5.30  0.00000000
 end

 basis
   * library cc-pVQZ
 end

 mcscf
   active  10
   actelec 2
   multiplicity 1
   maxiter 40
   vectors input H2.mos
   vectors output H2.mos
 end

 task mcscf

 scf
   vectors input H2.mos
   vectors output H2-5.30.mos
   noscf
 end

 tce
   2eorb
   2emet 13
   ccsd
   maxiter 300
   lshift 0.8
 end

# set tce:print_integrals T
# set tce:qorb 10
# set tce:qela 1
# set tce:qelb 1

 set tce:qducc T
 set tce:nactv 9
 set tce:nonhf T
 set tce:ducc_model 6

 set tce:printtol 0.02

 task tce
================================================================================

 Output coordinates in a.u. (scale by  1.000000000 to convert to a.u.)

  No.       Tag          Charge          X              Y              Z
 ---- ---------------- ---------- -------------- -------------- --------------
    1 H                    1.0000     0.00000000    -2.65000000     0.00000000
    2 H                    1.0000     0.00000000     2.65000000     0.00000000

 Vector    1  Occ=1.207688D+00  E=-2.937485D-01  Symmetry=a

 Vector    2  Occ=7.916841D-01  E=-2.058850D-01  Symmetry=a

 Vector    3  Occ=3.727713D-04  E=-1.937813D-04  Symmetry=a

 Vector    4  Occ=1.222167D-04  E=-6.936858D-05  Symmetry=a

 Vector    5  Occ=1.222167D-04  E=-6.936858D-05  Symmetry=a

 Vector    6  Occ=5.532003D-06  E=-3.539862D-06  Symmetry=a

 Vector    7  Occ=1.611785D-06  E=-1.545179D-06  Symmetry=a

 Vector    8  Occ=1.306099D-06  E=-1.167267D-06  Symmetry=a

 Vector    9  Occ=1.306099D-06  E=-1.167267D-06  Symmetry=a

 Vector   10  Occ=7.402543D-07  E=-9.567029D-07  Symmetry=a

 Vector   11  Occ=0.000000D+00  E= 4.448932D-01  Symmetry=a

 Vector   12  Occ=0.000000D+00  E= 6.969382D-01  Symmetry=a

 Vector   13  Occ=0.000000D+00  E= 7.986354D-01  Symmetry=a

 Vector   14  Occ=0.000000D+00  E= 1.183142D+00  Symmetry=a

 Vector   15  Occ=0.000000D+00  E= 1.183142D+00  Symmetry=a

 Vector   16  Occ=0.000000D+00  E= 1.721312D+00  Symmetry=a

 Vector   17  Occ=0.000000D+00  E= 1.804298D+00  Symmetry=a

 Vector   18  Occ=0.000000D+00  E= 1.804298D+00  Symmetry=a

 Vector   19  Occ=0.000000D+00  E= 1.869570D+00  Symmetry=a

 Vector   20  Occ=0.000000D+00  E= 2.025777D+00  Symmetry=a

         Total SCF energy =     -0.822721578600

 Vector    1  Occ=2.000000D+00  E=-2.937485D-01

 Vector    2  Occ=0.000000D+00  E=-2.058850D-01

 Vector    3  Occ=0.000000D+00  E=-1.937813D-04

 Vector    4  Occ=0.000000D+00  E=-6.936858D-05

 Vector    5  Occ=0.000000D+00  E=-6.936858D-05

 Vector    6  Occ=0.000000D+00  E=-3.539862D-06

 Vector    7  Occ=0.000000D+00  E=-1.545179D-06

 Vector    8  Occ=0.000000D+00  E=-1.167267D-06

 Vector    9  Occ=0.000000D+00  E=-1.167267D-06

 Vector   10  Occ=0.000000D+00  E=-9.567029D-07

 Vector   11  Occ=0.000000D+00  E= 4.448932D-01

 Vector   12  Occ=0.000000D+00  E= 6.969382D-01

       Multipole analysis of the density wrt the origin
       ------------------------------------------------

     L   x y z        total         open         nuclear
     -   - - -        -----         ----         -------
     0   0 0 0     -0.000000      0.000000      2.000000

     1   1 0 0     -0.000000      0.000000      0.000000
     1   0 1 0     -0.000000      0.000000      0.000000
     1   0 0 1      0.000000      0.000000      0.000000

     2   2 0 0     -2.138203      0.000000      0.000000
     2   1 1 0     -0.000000      0.000000      0.000000
     2   1 0 1      0.000000      0.000000      0.000000
     2   0 2 0     -1.254670      0.000000     14.045000
     2   0 1 1      0.000000      0.000000      0.000000

 CCSD total energy / hartree       =        -1.002087083890397
 Total times  cpu:      139.7s     wall:      142.9s
