============================== echo of input deck ==============================
 echo
 start H2
 title "H2"

 memory total 24 gb

 geometry units bohr
 symmetry c1
        H  0.00000000  0.00000000  0.00000000
        H  0.00000000  5.35  0.00000000
 end

 basis
   * library cc-pVQZ
 end

 mcscf
   active  10
   actelec 2
   multiplicity 1
   maxiter 40
   vectors input H2.mos
   vectors output H2.mos
 end

 task mcscf

 scf
   vectors input H2.mos
   vectors output H2-5.35.mos
   noscf
 end

 tce
   2eorb
   2emet 13
   ccsd
   maxiter 300
   lshift 0.8
 end

# set tce:print_integrals T
# set tce:qorb 10
# set tce:qela 1
# set tce:qelb 1

 set tce:qducc T
 set tce:nactv 9
 set tce:nonhf T
 set tce:ducc_model 6

 set tce:printtol 0.02

 task tce
================================================================================

 Output coordinates in a.u. (scale by  1.000000000 to convert to a.u.)

  No.       Tag          Charge          X              Y              Z
 ---- ---------------- ---------- -------------- -------------- --------------
    1 H                    1.0000     0.00000000    -2.67500000     0.00000000
    2 H                    1.0000     0.00000000     2.67500000     0.00000000

 Vector    1  Occ=1.199892D+00  E=-2.920979D-01  Symmetry=a

 Vector    2  Occ=7.995234D-01  E=-2.075576D-01  Symmetry=a

 Vector    3  Occ=3.499161D-04  E=-1.819673D-04  Symmetry=a

 Vector    4  Occ=1.129095D-04  E=-6.411820D-05  Symmetry=a

 Vector    5  Occ=1.129095D-04  E=-6.411820D-05  Symmetry=a

 Vector    6  Occ=4.925057D-06  E=-3.157281D-06  Symmetry=a

 Vector    7  Occ=1.451815D-06  E=-1.391207D-06  Symmetry=a

 Vector    8  Occ=1.115544D-06  E=-9.978134D-07  Symmetry=a

 Vector    9  Occ=1.115544D-06  E=-9.978134D-07  Symmetry=a

 Vector   10  Occ=6.718426D-07  E=-8.655859D-07  Symmetry=a

 Vector   11  Occ=0.000000D+00  E= 4.445164D-01  Symmetry=a

 Vector   12  Occ=0.000000D+00  E= 6.928101D-01  Symmetry=a

 Vector   13  Occ=0.000000D+00  E= 7.994871D-01  Symmetry=a

 Vector   14  Occ=0.000000D+00  E= 1.180981D+00  Symmetry=a

 Vector   15  Occ=0.000000D+00  E= 1.180981D+00  Symmetry=a

 Vector   16  Occ=0.000000D+00  E= 1.724010D+00  Symmetry=a

 Vector   17  Occ=0.000000D+00  E= 1.805138D+00  Symmetry=a

 Vector   18  Occ=0.000000D+00  E= 1.805138D+00  Symmetry=a

 Vector   19  Occ=0.000000D+00  E= 1.866842D+00  Symmetry=a

 Vector   20  Occ=0.000000D+00  E= 2.027391D+00  Symmetry=a

         Total SCF energy =     -0.820521766467

 Vector    1  Occ=2.000000D+00  E=-2.920979D-01

 Vector    2  Occ=0.000000D+00  E=-2.075576D-01

 Vector    3  Occ=0.000000D+00  E=-1.819673D-04

 Vector    4  Occ=0.000000D+00  E=-6.411820D-05

 Vector    5  Occ=0.000000D+00  E=-6.411820D-05

 Vector    6  Occ=0.000000D+00  E=-3.157281D-06

 Vector    7  Occ=0.000000D+00  E=-1.391207D-06

 Vector    8  Occ=0.000000D+00  E=-9.978134D-07

 Vector    9  Occ=0.000000D+00  E=-9.978134D-07

 Vector   10  Occ=0.000000D+00  E=-8.655859D-07

 Vector   11  Occ=0.000000D+00  E= 4.445164D-01

 Vector   12  Occ=0.000000D+00  E= 6.928101D-01

       Multipole analysis of the density wrt the origin
       ------------------------------------------------

     L   x y z        total         open         nuclear
     -   - - -        -----         ----         -------
     0   0 0 0     -0.000000      0.000000      2.000000

     1   1 0 0     -0.000000      0.000000      0.000000
     1   0 1 0     -0.000000      0.000000      0.000000
     1   0 0 1      0.000000      0.000000      0.000000

     2   2 0 0     -2.134632      0.000000      0.000000
     2   1 1 0     -0.000000      0.000000      0.000000
     2   1 0 1      0.000000      0.000000      0.000000
     2   0 2 0     -1.267079      0.000000     14.311250
     2   0 1 1      0.000000      0.000000      0.000000

 CCSD total energy / hartree       =        -1.001919969660914
 Total times  cpu:      138.4s     wall:      141.8s
