============================== echo of input deck ==============================
 echo
 start H2
 title "H2"

 memory total 24 gb

 geometry units bohr
 symmetry c1
        H  0.00000000  0.00000000  0.00000000
        H  0.00000000  5.95  0.00000000
 end

 basis
   * library cc-pVQZ
 end

 mcscf
   active  10
   actelec 2
   multiplicity 1
   maxiter 40
   vectors input H2.mos
   vectors output H2.mos
 end

 task mcscf

 scf
   vectors input H2.mos
   vectors output H2-5.95.mos
   noscf
 end

 tce
   2eorb
   2emet 13
   ccsd
   maxiter 300
   lshift 0.8
 end

# set tce:print_integrals T
# set tce:qorb 10
# set tce:qela 1
# set tce:qelb 1

 set tce:qducc T
 set tce:nactv 9
 set tce:nonhf T
 set tce:ducc_model 6

 set tce:printtol 0.02

 task tce
================================================================================

 Output coordinates in a.u. (scale by  1.000000000 to convert to a.u.)

  No.       Tag          Charge          X              Y              Z
 ---- ---------------- ---------- -------------- -------------- --------------
    1 H                    1.0000     0.00000000    -2.97500000     0.00000000
    2 H                    1.0000     0.00000000     2.97500000     0.00000000

 Vector    1  Occ=1.125265D+00  E=-2.763744D-01  Symmetry=a

 Vector    2  Occ=8.744846D-01  E=-2.234573D-01  Symmetry=a

 Vector    3  Occ=1.592621D-04  E=-8.390310D-05  Symmetry=a

 Vector    4  Occ=4.448329D-05  E=-2.540709D-05  Symmetry=a

 Vector    5  Occ=4.448329D-05  E=-2.540709D-05  Symmetry=a

 Vector    6  Occ=1.192811D-06  E=-7.889501D-07  Symmetry=a

 Vector    7  Occ=4.270436D-07  E=-4.045844D-07  Symmetry=a

 Vector    8  Occ=2.018213D-07  E=-2.492201D-07  Symmetry=a

 Vector    9  Occ=1.020851D-07  E=-9.284970D-08  Symmetry=a

 Vector   10  Occ=1.020851D-07  E=-9.284970D-08  Symmetry=a

 Vector   11  Occ=0.000000D+00  E= 4.320963D-01  Symmetry=a

 Vector   12  Occ=0.000000D+00  E= 6.542999D-01  Symmetry=a

 Vector   13  Occ=0.000000D+00  E= 8.178756D-01  Symmetry=a

 Vector   14  Occ=0.000000D+00  E= 1.149539D+00  Symmetry=a

 Vector   15  Occ=0.000000D+00  E= 1.149539D+00  Symmetry=a

 Vector   16  Occ=0.000000D+00  E= 1.756184D+00  Symmetry=a

 Vector   17  Occ=0.000000D+00  E= 1.817309D+00  Symmetry=a

 Vector   18  Occ=0.000000D+00  E= 1.817309D+00  Symmetry=a

 Vector   19  Occ=0.000000D+00  E= 1.861213D+00  Symmetry=a

 Vector   20  Occ=0.000000D+00  E= 2.040280D+00  Symmetry=a

         Total SCF energy =     -0.797834132845

 Vector    1  Occ=2.000000D+00  E=-2.763744D-01

 Vector    2  Occ=0.000000D+00  E=-2.234573D-01

 Vector    3  Occ=0.000000D+00  E=-8.390310D-05

 Vector    4  Occ=0.000000D+00  E=-2.540709D-05

 Vector    5  Occ=0.000000D+00  E=-2.540709D-05

 Vector    6  Occ=0.000000D+00  E=-7.889501D-07

 Vector    7  Occ=0.000000D+00  E=-4.045844D-07

 Vector    8  Occ=0.000000D+00  E=-2.492201D-07

 Vector    9  Occ=0.000000D+00  E=-9.284970D-08

 Vector   10  Occ=0.000000D+00  E=-9.284970D-08

 Vector   11  Occ=0.000000D+00  E= 4.320963D-01

 Vector   12  Occ=0.000000D+00  E= 6.542999D-01

       Multipole analysis of the density wrt the origin
       ------------------------------------------------

     L   x y z        total         open         nuclear
     -   - - -        -----         ----         -------
     0   0 0 0     -0.000000      0.000000      2.000000

     1   1 0 0     -0.000000      0.000000      0.000000
     1   0 1 0     -0.000000      0.000000      0.000000
     1   0 0 1      0.000000      0.000000      0.000000

     2   2 0 0     -2.095802      0.000000      0.000000
     2   1 1 0     -0.000000      0.000000      0.000000
     2   1 0 1      0.000000      0.000000      0.000000
     2   0 2 0     -1.412060      0.000000     17.701250
     2   0 1 1      0.000000      0.000000      0.000000

 CCSD total energy / hartree       =        -1.000672827330203
 Total times  cpu:      139.2s     wall:      142.4s
