============================== echo of input deck ==============================
 echo
 start H2
 title "H2"

 memory total 24 gb

 geometry units bohr
 symmetry c1
        H  0.00000000  0.00000000  0.00000000
        H  0.00000000  6.15  0.00000000
 end

 basis
   * library cc-pVQZ
 end

 mcscf
   active  10
   actelec 2
   multiplicity 1
   maxiter 40
   vectors input H2.mos
   vectors output H2.mos
 end

 task mcscf

 scf
   vectors input H2.mos
   vectors output H2-6.15.mos
   noscf
 end

 tce
   2eorb
   2emet 13
   ccsd
   maxiter 300
   lshift 0.8
 end

# set tce:print_integrals T
# set tce:qorb 10
# set tce:qela 1
# set tce:qelb 1

 set tce:qducc T
 set tce:nactv 9
 set tce:nonhf T
 set tce:ducc_model 6

 set tce:printtol 0.02

 task tce
================================================================================

 Output coordinates in a.u. (scale by  1.000000000 to convert to a.u.)

  No.       Tag          Charge          X              Y              Z
 ---- ---------------- ---------- -------------- -------------- --------------
    1 H                    1.0000     0.00000000    -3.07500000     0.00000000
    2 H                    1.0000     0.00000000     3.07500000     0.00000000

 Vector    1  Occ=1.106943D+00  E=-2.725284D-01  Symmetry=a

 Vector    2  Occ=8.928684D-01  E=-2.273348D-01  Symmetry=a

 Vector    3  Occ=1.219090D-04  E=-6.463352D-05  Symmetry=a

 Vector    4  Occ=3.299648D-05  E=-1.886271D-05  Symmetry=a

 Vector    5  Occ=3.299648D-05  E=-1.886271D-05  Symmetry=a

 Vector    6  Occ=7.388823D-07  E=-4.943556D-07  Symmetry=a

 Vector    7  Occ=2.841838D-07  E=-2.677018D-07  Symmetry=a

 Vector    8  Occ=1.321759D-07  E=-1.611511D-07  Symmetry=a

 Vector    9  Occ=2.826060D-08  E=-2.568999D-08  Symmetry=a

 Vector   10  Occ=2.826060D-08  E=-2.568999D-08  Symmetry=a

 Vector   11  Occ=0.000000D+00  E= 4.277950D-01  Symmetry=a

 Vector   12  Occ=0.000000D+00  E= 6.445675D-01  Symmetry=a

 Vector   13  Occ=0.000000D+00  E= 8.246220D-01  Symmetry=a

 Vector   14  Occ=0.000000D+00  E= 1.143954D+00  Symmetry=a

 Vector   15  Occ=0.000000D+00  E= 1.143954D+00  Symmetry=a

 Vector   16  Occ=0.000000D+00  E= 1.761316D+00  Symmetry=a

 Vector   17  Occ=0.000000D+00  E= 1.821428D+00  Symmetry=a

 Vector   18  Occ=0.000000D+00  E= 1.821428D+00  Symmetry=a

 Vector   19  Occ=0.000000D+00  E= 1.867931D+00  Symmetry=a

 Vector   20  Occ=0.000000D+00  E= 2.042802D+00  Symmetry=a

         Total SCF energy =     -0.791631810852

 Vector    1  Occ=2.000000D+00  E=-2.725284D-01

 Vector    2  Occ=0.000000D+00  E=-2.273348D-01

 Vector    3  Occ=0.000000D+00  E=-6.463352D-05

 Vector    4  Occ=0.000000D+00  E=-1.886271D-05

 Vector    5  Occ=0.000000D+00  E=-1.886271D-05

 Vector    6  Occ=0.000000D+00  E=-4.943556D-07

 Vector    7  Occ=0.000000D+00  E=-2.677018D-07

 Vector    8  Occ=0.000000D+00  E=-1.611511D-07

 Vector    9  Occ=0.000000D+00  E=-2.568999D-08

 Vector   10  Occ=0.000000D+00  E=-2.568999D-08

 Vector   11  Occ=0.000000D+00  E= 4.277950D-01

 Vector   12  Occ=0.000000D+00  E= 6.445675D-01

       Multipole analysis of the density wrt the origin
       ------------------------------------------------

     L   x y z        total         open         nuclear
     -   - - -        -----         ----         -------
     0   0 0 0     -0.000000      0.000000      2.000000

     1   1 0 0     -0.000000      0.000000      0.000000
     1   0 1 0     -0.000000      0.000000      0.000000
     1   0 0 1      0.000000      0.000000      0.000000

     2   2 0 0     -2.084724      0.000000      0.000000
     2   1 1 0     -0.000000      0.000000      0.000000
     2   1 0 1      0.000000      0.000000      0.000000
     2   0 2 0     -1.457632      0.000000     18.911250
     2   0 1 1      0.000000      0.000000      0.000000

 CCSD total energy / hartree       =        -1.000460332138728
 Total times  cpu:      138.9s     wall:      142.9s
