============================== echo of input deck ==============================
 echo
 start H2
 title "H2"

 memory total 24 gb

 geometry units bohr
 symmetry c1
        H  0.00000000  0.00000000  0.00000000
        H  0.00000000  6.25  0.00000000
 end

 basis
   * library cc-pVQZ
 end

 mcscf
   active  10
   actelec 2
   multiplicity 1
   maxiter 40
   vectors input H2.mos
   vectors output H2.mos
 end

 task mcscf

 scf
   vectors input H2.mos
   vectors output H2-6.25.mos
   noscf
 end

 tce
   2eorb
   2emet 13
   ccsd
   maxiter 300
   lshift 0.8
 end

# set tce:print_integrals T
# set tce:qorb 10
# set tce:qela 1
# set tce:qelb 1

 set tce:qducc T
 set tce:nactv 9
 set tce:nonhf T
 set tce:ducc_model 6

 set tce:printtol 0.02

 task tce
================================================================================

 Output coordinates in a.u. (scale by  1.000000000 to convert to a.u.)

  No.       Tag          Charge          X              Y              Z
 ---- ---------------- ---------- -------------- -------------- --------------
    1 H                    1.0000     0.00000000    -3.12500000     0.00000000
    2 H                    1.0000     0.00000000     3.12500000     0.00000000

 Vector    1  Occ=1.098767D+00  E=-2.708128D-01  Symmetry=a

 Vector    2  Occ=9.010684D-01  E=-2.290631D-01  Symmetry=a

 Vector    3  Occ=1.065030D-04  E=-5.669691D-05  Symmetry=a

 Vector    4  Occ=2.845087D-05  E=-1.628110D-05  Symmetry=a

 Vector    5  Occ=2.845087D-05  E=-1.628110D-05  Symmetry=a

 Vector    6  Occ=5.785324D-07  E=-3.887590D-07  Symmetry=a

 Vector    7  Occ=2.318618D-07  E=-2.178756D-07  Symmetry=a

 Vector    8  Occ=1.066846D-07  E=-1.295097D-07  Symmetry=a

 Vector    9  Occ=1.086891D-08  E=-9.873141D-09  Symmetry=a

 Vector   10  Occ=1.086891D-08  E=-9.873141D-09  Symmetry=a

 Vector   11  Occ=0.000000D+00  E= 4.261205D-01  Symmetry=a

 Vector   12  Occ=0.000000D+00  E= 6.399139D-01  Symmetry=a

 Vector   13  Occ=0.000000D+00  E= 8.270448D-01  Symmetry=a

 Vector   14  Occ=0.000000D+00  E= 1.142113D+00  Symmetry=a

 Vector   15  Occ=0.000000D+00  E= 1.142113D+00  Symmetry=a

 Vector   16  Occ=0.000000D+00  E= 1.762565D+00  Symmetry=a

 Vector   17  Occ=0.000000D+00  E= 1.823006D+00  Symmetry=a

 Vector   18  Occ=0.000000D+00  E= 1.823006D+00  Symmetry=a

 Vector   19  Occ=0.000000D+00  E= 1.872311D+00  Symmetry=a

 Vector   20  Occ=0.000000D+00  E= 2.043199D+00  Symmetry=a

         Total SCF energy =     -0.788752033666

 Vector    1  Occ=2.000000D+00  E=-2.708128D-01

 Vector    2  Occ=0.000000D+00  E=-2.290631D-01

 Vector    3  Occ=0.000000D+00  E=-5.669691D-05

 Vector    4  Occ=0.000000D+00  E=-1.628110D-05

 Vector    5  Occ=0.000000D+00  E=-1.628110D-05

 Vector    6  Occ=0.000000D+00  E=-3.887590D-07

 Vector    7  Occ=0.000000D+00  E=-2.178756D-07

 Vector    8  Occ=0.000000D+00  E=-1.295097D-07

 Vector    9  Occ=0.000000D+00  E=-9.873141D-09

 Vector   10  Occ=0.000000D+00  E=-9.873141D-09

 Vector   11  Occ=0.000000D+00  E= 4.261205D-01

 Vector   12  Occ=0.000000D+00  E= 6.399139D-01

       Multipole analysis of the density wrt the origin
       ------------------------------------------------

     L   x y z        total         open         nuclear
     -   - - -        -----         ----         -------
     0   0 0 0     -0.000000      0.000000      2.000000

     1   1 0 0     -0.000000      0.000000      0.000000
     1   0 1 0     -0.000000      0.000000      0.000000
     1   0 0 1      0.000000      0.000000      0.000000

     2   2 0 0     -2.079514      0.000000      0.000000
     2   1 1 0     -0.000000      0.000000      0.000000
     2   1 0 1      0.000000      0.000000      0.000000
     2   0 2 0     -1.479674      0.000000     19.531250
     2   0 1 1      0.000000      0.000000      0.000000

 CCSD total energy / hartree       =        -1.000377127974823
 Total times  cpu:      140.0s     wall:      142.9s
