============================== echo of input deck ==============================
 echo
 start H2
 title "H2"

 memory total 24 gb

 geometry units bohr
 symmetry c1
        H  0.00000000  0.00000000  0.00000000
        H  0.00000000  6.35  0.00000000
 end

 basis
   * library cc-pVQZ
 end

 mcscf
   active  10
   actelec 2
   multiplicity 1
   maxiter 40
   vectors input H2.mos
   vectors output H2.mos
 end

 task mcscf

 scf
   vectors input H2.mos
   vectors output H2-6.35.mos
   noscf
 end

 tce
   2eorb
   2emet 13
   ccsd
   maxiter 300
   lshift 0.8
 end

# set tce:print_integrals T
# set tce:qorb 10
# set tce:qela 1
# set tce:qelb 1

 set tce:qducc T
 set tce:nactv 9
 set tce:nonhf T
 set tce:ducc_model 6

 set tce:printtol 0.02

 task tce
================================================================================

 Output coordinates in a.u. (scale by  1.000000000 to convert to a.u.)

  No.       Tag          Charge          X              Y              Z
 ---- ---------------- ---------- -------------- -------------- --------------
    1 H                    1.0000     0.00000000    -3.17500000     0.00000000
    2 H                    1.0000     0.00000000     3.17500000     0.00000000

 Vector    1  Occ=1.091226D+00  E=-2.692190D-01  Symmetry=a

 Vector    2  Occ=9.086309D-01  E=-2.306686D-01  Symmetry=a

 Vector    3  Occ=9.350470D-05  E=-4.984685D-05  Symmetry=a

 Vector    4  Occ=2.464918D-05  E=-1.409670D-05  Symmetry=a

 Vector    5  Occ=2.464918D-05  E=-1.409670D-05  Symmetry=a

 Vector    6  Occ=4.554226D-07  E=-3.087627D-07  Symmetry=a

 Vector    7  Occ=1.881578D-07  E=-1.762999D-07  Symmetry=a

 Vector    8  Occ=8.557944D-08  E=-1.032434D-07  Symmetry=a

 Vector    9  Occ=2.365173D-09  E=-2.306388D-09  Symmetry=a

 Vector   10  Occ=2.365173D-09  E=-2.306388D-09  Symmetry=a

 Vector   11  Occ=0.000000D+00  E= 4.241196D-01  Symmetry=a

 Vector   12  Occ=0.000000D+00  E= 6.359236D-01  Symmetry=a

 Vector   13  Occ=0.000000D+00  E= 8.301105D-01  Symmetry=a

 Vector   14  Occ=0.000000D+00  E= 1.139983D+00  Symmetry=a

 Vector   15  Occ=0.000000D+00  E= 1.139983D+00  Symmetry=a

 Vector   16  Occ=0.000000D+00  E= 1.763654D+00  Symmetry=a

 Vector   17  Occ=0.000000D+00  E= 1.825278D+00  Symmetry=a

 Vector   18  Occ=0.000000D+00  E= 1.825278D+00  Symmetry=a

 Vector   19  Occ=0.000000D+00  E= 1.876961D+00  Symmetry=a

 Vector   20  Occ=0.000000D+00  E= 2.044893D+00  Symmetry=a

         Total SCF energy =     -0.786013535556

 Vector    1  Occ=2.000000D+00  E=-2.692190D-01

 Vector    2  Occ=0.000000D+00  E=-2.306686D-01

 Vector    3  Occ=0.000000D+00  E=-4.984685D-05

 Vector    4  Occ=0.000000D+00  E=-1.409670D-05

 Vector    5  Occ=0.000000D+00  E=-1.409670D-05

 Vector    6  Occ=0.000000D+00  E=-3.087627D-07

 Vector    7  Occ=0.000000D+00  E=-1.762999D-07

 Vector    8  Occ=0.000000D+00  E=-1.032434D-07

 Vector    9  Occ=0.000000D+00  E=-2.306388D-09

 Vector   10  Occ=0.000000D+00  E=-2.306388D-09

 Vector   11  Occ=0.000000D+00  E= 4.241196D-01

 Vector   12  Occ=0.000000D+00  E= 6.359236D-01

       Multipole analysis of the density wrt the origin
       ------------------------------------------------

     L   x y z        total         open         nuclear
     -   - - -        -----         ----         -------
     0   0 0 0     -0.000000      0.000000      2.000000

     1   1 0 0     -0.000000      0.000000      0.000000
     1   0 1 0     -0.000000      0.000000      0.000000
     1   0 0 1      0.000000      0.000000      0.000000

     2   2 0 0     -2.074588      0.000000      0.000000
     2   1 1 0     -0.000000      0.000000      0.000000
     2   1 0 1      0.000000      0.000000      0.000000
     2   0 2 0     -1.501260      0.000000     20.161250
     2   0 1 1      0.000000      0.000000      0.000000

 CCSD total energy / hartree       =        -1.000306321412627
 Total times  cpu:      139.2s     wall:      143.7s
