============================== echo of input deck ==============================
 echo
 start H2
 title "H2"

 memory total 24 gb

 geometry units bohr
 symmetry c1
        H  0.00000000  0.00000000  0.00000000
        H  0.00000000  6.90  0.00000000
 end

 basis
   * library cc-pVQZ
 end

 mcscf
   active  10
   actelec 2
   multiplicity 1
   maxiter 40
   vectors input H2.mos
   vectors output H2.mos
 end

 task mcscf

 scf
   vectors input H2.mos
   vectors output H2-6.90.mos
   noscf
 end

 tce
   2eorb
   2emet 13
   ccsd
   maxiter 300
   lshift 0.8
 end

# set tce:print_integrals T
# set tce:qorb 10
# set tce:qela 1
# set tce:qelb 1

 set tce:qducc T
 set tce:nactv 9
 set tce:nonhf T
 set tce:ducc_model 6

 set tce:printtol 0.02

 task tce
================================================================================

 Output coordinates in a.u. (scale by  1.000000000 to convert to a.u.)

  No.       Tag          Charge          X              Y              Z
 ---- ---------------- ---------- -------------- -------------- --------------
    1 H                    1.0000     0.00000000    -3.45000000     0.00000000
    2 H                    1.0000     0.00000000     3.45000000     0.00000000

 Vector    1  Occ=1.058744D+00  E=-2.624054D-01  Symmetry=a

 Vector    2  Occ=9.411864D-01  E=-2.375169D-01  Symmetry=a

 Vector    3  Occ=4.615484D-05  E=-2.497129D-05  Symmetry=a

 Vector    4  Occ=1.153391D-05  E=-6.593720D-06  Symmetry=a

 Vector    5  Occ=1.153391D-05  E=-6.593720D-06  Symmetry=a

 Vector    6  Occ=1.176392D-07  E=-8.269328D-08  Symmetry=a

 Vector    7  Occ=5.962179D-08  E=-5.512895D-08  Symmetry=a

 Vector    8  Occ=2.477712D-08  E=-2.913368D-08  Symmetry=a

 Vector    9  Occ=2.454233D-08  E=-2.186201D-08  Symmetry=a

 Vector   10  Occ=2.454233D-08  E=-2.186201D-08  Symmetry=a

 Vector   11  Occ=0.000000D+00  E= 4.194124D-01  Symmetry=a

 Vector   12  Occ=0.000000D+00  E= 6.163382D-01  Symmetry=a

 Vector   13  Occ=0.000000D+00  E= 8.336703D-01  Symmetry=a

 Vector   14  Occ=0.000000D+00  E= 1.135968D+00  Symmetry=a

 Vector   15  Occ=0.000000D+00  E= 1.135968D+00  Symmetry=a

 Vector   16  Occ=0.000000D+00  E= 1.759583D+00  Symmetry=a

 Vector   17  Occ=0.000000D+00  E= 1.833780D+00  Symmetry=a

 Vector   18  Occ=0.000000D+00  E= 1.833780D+00  Symmetry=a

 Vector   19  Occ=0.000000D+00  E= 1.904097D+00  Symmetry=a

 Vector   20  Occ=0.000000D+00  E= 2.049627D+00  Symmetry=a

         Total SCF energy =     -0.773143454855

 Vector    1  Occ=2.000000D+00  E=-2.624054D-01

 Vector    2  Occ=0.000000D+00  E=-2.375169D-01

 Vector    3  Occ=0.000000D+00  E=-2.497129D-05

 Vector    4  Occ=0.000000D+00  E=-6.593720D-06

 Vector    5  Occ=0.000000D+00  E=-6.593720D-06

 Vector    6  Occ=0.000000D+00  E=-8.269328D-08

 Vector    7  Occ=0.000000D+00  E=-5.512895D-08

 Vector    8  Occ=0.000000D+00  E=-2.913368D-08

 Vector    9  Occ=0.000000D+00  E=-2.186201D-08

 Vector   10  Occ=0.000000D+00  E=-2.186201D-08

 Vector   11  Occ=0.000000D+00  E= 4.194124D-01

 Vector   12  Occ=0.000000D+00  E= 6.163382D-01

       Multipole analysis of the density wrt the origin
       ------------------------------------------------

     L   x y z        total         open         nuclear
     -   - - -        -----         ----         -------
     0   0 0 0     -0.000000      0.000000      2.000000

     1   1 0 0     -0.000000      0.000000      0.000000
     1   0 1 0     -0.000000      0.000000      0.000000
     1   0 0 1      0.000000      0.000000      0.000000

     2   2 0 0     -2.051630      0.000000      0.000000
     2   1 1 0     -0.000000      0.000000      0.000000
     2   1 0 1      0.000000      0.000000      0.000000
     2   0 2 0     -1.609854      0.000000     23.805000
     2   0 1 1      0.000000      0.000000      0.000000

 CCSD total energy / hartree       =        -1.000068473181954
 Total times  cpu:      137.6s     wall:      140.2s
