============================== echo of input deck ==============================
 echo
 start H2
 title "H2"

 memory total 24 gb

 geometry units bohr
 symmetry c1
        H  0.00000000  0.00000000  0.00000000
        H  0.00000000  7.00  0.00000000
 end

 basis
   * library cc-pVQZ
 end

 mcscf
   active  10
   actelec 2
   multiplicity 1
   maxiter 40
   vectors input H2.mos
   vectors output H2.mos
 end

 task mcscf

 scf
   vectors input H2.mos
   vectors output H2-7.00.mos
   noscf
 end

 tce
   2eorb
   2emet 13
   ccsd
   maxiter 300
   lshift 0.8
 end

# set tce:print_integrals T
# set tce:qorb 10
# set tce:qela 1
# set tce:qelb 1

 set tce:qducc T
 set tce:nactv 9
 set tce:nonhf T
 set tce:ducc_model 6

 set tce:printtol 0.02

 task tce
================================================================================

 Output coordinates in a.u. (scale by  1.000000000 to convert to a.u.)

  No.       Tag          Charge          X              Y              Z
 ---- ---------------- ---------- -------------- -------------- --------------
    1 H                    1.0000     0.00000000    -3.50000000     0.00000000
    2 H                    1.0000     0.00000000     3.50000000     0.00000000

 Vector    1  Occ=1.054205D+00  E=-2.614637D-01  Symmetry=a

 Vector    2  Occ=9.457336D-01  E=-2.384607D-01  Symmetry=a

 Vector    3  Occ=4.069522D-05  E=-2.210703D-05  Symmetry=a

 Vector    4  Occ=1.010599D-05  E=-5.780417D-06  Symmetry=a

 Vector    5  Occ=1.010599D-05  E=-5.780417D-06  Symmetry=a

 Vector    6  Occ=9.126729D-08  E=-6.435711D-08  Symmetry=a

 Vector    7  Occ=4.829347D-08  E=-4.464067D-08  Symmetry=a

 Vector    8  Occ=3.207688D-08  E=-2.918869D-08  Symmetry=a

 Vector    9  Occ=3.207688D-08  E=-2.918869D-08  Symmetry=a

 Vector   10  Occ=1.972708D-08  E=-2.310011D-08  Symmetry=a

 Vector   11  Occ=0.000000D+00  E= 4.197152D-01  Symmetry=a

 Vector   12  Occ=0.000000D+00  E= 6.131089D-01  Symmetry=a

 Vector   13  Occ=0.000000D+00  E= 8.317321D-01  Symmetry=a

 Vector   14  Occ=0.000000D+00  E= 1.135103D+00  Symmetry=a

 Vector   15  Occ=0.000000D+00  E= 1.135103D+00  Symmetry=a

 Vector   16  Occ=0.000000D+00  E= 1.757639D+00  Symmetry=a

 Vector   17  Occ=0.000000D+00  E= 1.834688D+00  Symmetry=a

 Vector   18  Occ=0.000000D+00  E= 1.834688D+00  Symmetry=a

 Vector   19  Occ=0.000000D+00  E= 1.908366D+00  Symmetry=a

 Vector   20  Occ=0.000000D+00  E= 2.049750D+00  Symmetry=a

         Total SCF energy =     -0.771153352517

 Vector    1  Occ=2.000000D+00  E=-2.614637D-01

 Vector    2  Occ=0.000000D+00  E=-2.384607D-01

 Vector    3  Occ=0.000000D+00  E=-2.210703D-05

 Vector    4  Occ=0.000000D+00  E=-5.780417D-06

 Vector    5  Occ=0.000000D+00  E=-5.780417D-06

 Vector    6  Occ=0.000000D+00  E=-6.435711D-08

 Vector    7  Occ=0.000000D+00  E=-4.464067D-08

 Vector    8  Occ=0.000000D+00  E=-2.918869D-08

 Vector    9  Occ=0.000000D+00  E=-2.918869D-08

 Vector   10  Occ=0.000000D+00  E=-2.310011D-08

 Vector   11  Occ=0.000000D+00  E= 4.197152D-01

 Vector   12  Occ=0.000000D+00  E= 6.131089D-01

       Multipole analysis of the density wrt the origin
       ------------------------------------------------

     L   x y z        total         open         nuclear
     -   - - -        -----         ----         -------
     0   0 0 0     -0.000000      0.000000      2.000000

     1   1 0 0     -0.000000      0.000000      0.000000
     1   0 1 0     -0.000000      0.000000      0.000000
     1   0 0 1      0.000000      0.000000      0.000000

     2   2 0 0     -2.048176      0.000000      0.000000
     2   1 1 0     -0.000000      0.000000      0.000000
     2   1 0 1      0.000000      0.000000      0.000000
     2   0 2 0     -1.627727      0.000000     24.500000
     2   0 1 1      0.000000      0.000000      0.000000

 CCSD total energy / hartree       =        -1.000043666857046
 Total times  cpu:      140.9s     wall:      144.0s
