============================== echo of input deck ==============================
 echo
 start H2
 title "H2"

 memory total 24 gb

 geometry units bohr
 symmetry c1
        H  0.00000000  0.00000000  0.00000000
        H  0.00000000  7.65  0.00000000
 end

 basis
   * library cc-pVQZ
 end

 mcscf
   active  10
   actelec 2
   multiplicity 1
   maxiter 40
   vectors input H2.mos
   vectors output H2.mos
 end

 task mcscf

 scf
   vectors input H2.mos
   vectors output H2-7.65.mos
   noscf
 end

 tce
   2eorb
   2emet 13
   ccsd
   maxiter 300
   lshift 0.8
 end

# set tce:print_integrals T
# set tce:qorb 10
# set tce:qela 1
# set tce:qelb 1

 set tce:qducc T
 set tce:nactv 9
 set tce:nonhf T
 set tce:ducc_model 6

 set tce:printtol 0.02

 task tce
================================================================================

 Output coordinates in a.u. (scale by  1.000000000 to convert to a.u.)

  No.       Tag          Charge          X              Y              Z
 ---- ---------------- ---------- -------------- -------------- --------------
    1 H                    1.0000     0.00000000    -3.82500000     0.00000000
    2 H                    1.0000     0.00000000     3.82500000     0.00000000

 Vector    1  Occ=1.032083D+00  E=-2.570854D-01  Symmetry=a

 Vector    2  Occ=9.678885D-01  E=-2.428518D-01  Symmetry=a

 Vector    3  Occ=1.882198D-05  E=-1.096222D-05  Symmetry=a

 Vector    4  Occ=4.539527D-06  E=-2.750884D-06  Symmetry=a

 Vector    5  Occ=4.539527D-06  E=-2.750884D-06  Symmetry=a

 Vector    6  Occ=6.806343D-08  E=-6.019651D-08  Symmetry=a

 Vector    7  Occ=6.806343D-08  E=-6.019651D-08  Symmetry=a

 Vector    8  Occ=1.692189D-08  E=-1.431771D-08  Symmetry=a

 Vector    9  Occ=1.155146D-08  E=-1.186795D-08  Symmetry=a

 Vector   10  Occ=4.229809D-09  E=-5.444917D-09  Symmetry=a

 Vector   11  Occ=0.000000D+00  E= 4.272192D-01  Symmetry=a

 Vector   12  Occ=0.000000D+00  E= 5.957318D-01  Symmetry=a

 Vector   13  Occ=0.000000D+00  E= 8.145376D-01  Symmetry=a

 Vector   14  Occ=0.000000D+00  E= 1.135283D+00  Symmetry=a

 Vector   15  Occ=0.000000D+00  E= 1.135283D+00  Symmetry=a

 Vector   16  Occ=0.000000D+00  E= 1.743392D+00  Symmetry=a

 Vector   17  Occ=0.000000D+00  E= 1.838757D+00  Symmetry=a

 Vector   18  Occ=0.000000D+00  E= 1.838757D+00  Symmetry=a

 Vector   19  Occ=0.000000D+00  E= 1.926979D+00  Symmetry=a

 Vector   20  Occ=0.000000D+00  E= 2.051576D+00  Symmetry=a

         Total SCF energy =     -0.760284926236

 Vector    1  Occ=2.000000D+00  E=-2.570854D-01

 Vector    2  Occ=0.000000D+00  E=-2.428518D-01

 Vector    3  Occ=0.000000D+00  E=-1.096222D-05

 Vector    4  Occ=0.000000D+00  E=-2.750884D-06

 Vector    5  Occ=0.000000D+00  E=-2.750884D-06

 Vector    6  Occ=0.000000D+00  E=-6.019651D-08

 Vector    7  Occ=0.000000D+00  E=-6.019651D-08

 Vector    8  Occ=0.000000D+00  E=-1.431771D-08

 Vector    9  Occ=0.000000D+00  E=-1.186795D-08

 Vector   10  Occ=0.000000D+00  E=-5.444917D-09

 Vector   11  Occ=0.000000D+00  E= 4.272192D-01

 Vector   12  Occ=0.000000D+00  E= 5.957318D-01

       Multipole analysis of the density wrt the origin
       ------------------------------------------------

     L   x y z        total         open         nuclear
     -   - - -        -----         ----         -------
     0   0 0 0     -0.000000      0.000000      2.000000

     1   1 0 0     -0.000000      0.000000      0.000000
     1   0 1 0     -0.000000      0.000000      0.000000
     1   0 0 1      0.000000      0.000000      0.000000

     2   2 0 0     -2.030281      0.000000      0.000000
     2   1 1 0     -0.000000      0.000000      0.000000
     2   1 0 1      0.000000      0.000000      0.000000
     2   0 2 0     -1.729190      0.000000     29.261250
     2   0 1 1      0.000000      0.000000      0.000000

 CCSD total energy / hartree       =        -0.999951062474065
 Total times  cpu:      138.0s     wall:      142.0s
