============================== echo of input deck ==============================
 echo
 start H2
 title "H2"

 memory total 24 gb

 geometry units bohr
 symmetry c1
        H  0.00000000  0.00000000  0.00000000
        H  0.00000000  2.00  0.00000000
 end

 basis
   * library cc-pVQZ
 end

 mcscf
   active  10
   actelec 2
   multiplicity 1
   maxiter 40
   vectors input H2.mos
   vectors output H2.mos
 end

 task mcscf

 scf
   vectors input H2.mos
   vectors output H2-2.00.mos
   noscf
 end

 tce
   2eorb
   2emet 13
   ccsd
   maxiter 300
   lshift 0.8
 end

# set tce:print_integrals T
# set tce:qorb 10
# set tce:qela 1
# set tce:qelb 1

 set tce:qducc T
 set tce:nactv 9
 set tce:nonhf T
 set tce:ducc_model 3

 set tce:printtol 0.02

 task tce
================================================================================

 Output coordinates in a.u. (scale by  1.000000000 to convert to a.u.)

  No.       Tag          Charge          X              Y              Z
 ---- ---------------- ---------- -------------- -------------- --------------
    1 H                    1.0000     0.00000000    -1.00000000     0.00000000
    2 H                    1.0000     0.00000000     1.00000000     0.00000000

 Vector    1  Occ=1.932760D+00  E=-5.369393D-01  Symmetry=a

 Vector    2  Occ=5.244504D-02  E=-2.604581D-02  Symmetry=a

 Vector    3  Occ=5.314641D-03  E=-3.834140D-03  Symmetry=a

 Vector    4  Occ=4.283738D-03  E=-3.100511D-03  Symmetry=a

 Vector    5  Occ=4.283738D-03  E=-3.100511D-03  Symmetry=a

 Vector    6  Occ=2.930683D-04  E=-3.298177D-04  Symmetry=a

 Vector    7  Occ=2.078125D-04  E=-2.532890D-04  Symmetry=a

 Vector    8  Occ=1.711294D-04  E=-2.067936D-04  Symmetry=a

 Vector    9  Occ=1.711294D-04  E=-2.067936D-04  Symmetry=a

 Vector   10  Occ=7.015384D-05  E=-1.104018D-04  Symmetry=a

 Vector   11  Occ=0.000000D+00  E= 4.190546D-01  Symmetry=a

 Vector   12  Occ=0.000000D+00  E= 8.815257D-01  Symmetry=a

 Vector   13  Occ=0.000000D+00  E= 1.081751D+00  Symmetry=a

 Vector   14  Occ=0.000000D+00  E= 1.319858D+00  Symmetry=a

 Vector   15  Occ=0.000000D+00  E= 1.319858D+00  Symmetry=a

 Vector   16  Occ=0.000000D+00  E= 1.421016D+00  Symmetry=a

 Vector   17  Occ=0.000000D+00  E= 1.421016D+00  Symmetry=a

 Vector   18  Occ=0.000000D+00  E= 1.922058D+00  Symmetry=a

 Vector   19  Occ=0.000000D+00  E= 1.922058D+00  Symmetry=a

 Vector   20  Occ=0.000000D+00  E= 2.017903D+00  Symmetry=a

         Total SCF energy =     -1.090915854105

 Vector    1  Occ=2.000000D+00  E=-5.369393D-01

 Vector    2  Occ=0.000000D+00  E=-2.604581D-02

 Vector    3  Occ=0.000000D+00  E=-3.834140D-03

 Vector    4  Occ=0.000000D+00  E=-3.100511D-03

 Vector    5  Occ=0.000000D+00  E=-3.100511D-03

 Vector    6  Occ=0.000000D+00  E=-3.298177D-04

 Vector    7  Occ=0.000000D+00  E=-2.532890D-04

 Vector    8  Occ=0.000000D+00  E=-2.067936D-04

 Vector    9  Occ=0.000000D+00  E=-2.067936D-04

 Vector   10  Occ=0.000000D+00  E=-1.104018D-04

 Vector   11  Occ=0.000000D+00  E= 4.190546D-01

 Vector   12  Occ=0.000000D+00  E= 8.815257D-01

       Multipole analysis of the density wrt the origin
       ------------------------------------------------

     L   x y z        total         open         nuclear
     -   - - -        -----         ----         -------
     0   0 0 0     -0.000000      0.000000      2.000000

     1   1 0 0      0.000000      0.000000      0.000000
     1   0 1 0     -0.000000      0.000000      0.000000
     1   0 0 1     -0.000000      0.000000      0.000000

     2   2 0 0     -1.835438      0.000000      0.000000
     2   1 1 0     -0.000000      0.000000      0.000000
     2   1 0 1     -0.000000      0.000000      0.000000
     2   0 2 0     -1.040924      0.000000      2.000000
     2   0 1 1     -0.000000      0.000000      0.000000

 CCSD total energy / hartree       =        -1.137558290212249
 Total times  cpu:       40.6s     wall:       45.1s
