============================== echo of input deck ==============================
 echo
 start H2
 title "H2"

 memory total 24 gb

 geometry units bohr
 symmetry c1
        H  0.00000000  0.00000000  0.00000000
        H  0.00000000  2.20  0.00000000
 end

 basis
   * library cc-pVQZ
 end

 mcscf
   active  10
   actelec 2
   multiplicity 1
   maxiter 40
   vectors input H2.mos
   vectors output H2.mos
 end

 task mcscf

 scf
   vectors input H2.mos
   vectors output H2-2.20.mos
   noscf
 end

 tce
   2eorb
   2emet 13
   ccsd
   maxiter 300
   lshift 0.8
 end

# set tce:print_integrals T
# set tce:qorb 10
# set tce:qela 1
# set tce:qelb 1

 set tce:qducc T
 set tce:nactv 9
 set tce:nonhf T
 set tce:ducc_model 3

 set tce:printtol 0.02

 task tce
================================================================================

 Output coordinates in a.u. (scale by  1.000000000 to convert to a.u.)

  No.       Tag          Charge          X              Y              Z
 ---- ---------------- ---------- -------------- -------------- --------------
    1 H                    1.0000     0.00000000    -1.10000000     0.00000000
    2 H                    1.0000     0.00000000     1.10000000     0.00000000

 Vector    1  Occ=1.915624D+00  E=-5.148570D-01  Symmetry=a

 Vector    2  Occ=7.033066D-02  E=-3.194742D-02  Symmetry=a

 Vector    3  Occ=4.934034D-03  E=-3.412005D-03  Symmetry=a

 Vector    4  Occ=4.092178D-03  E=-2.819578D-03  Symmetry=a

 Vector    5  Occ=4.092178D-03  E=-2.819578D-03  Symmetry=a

 Vector    6  Occ=3.146355D-04  E=-3.228186D-04  Symmetry=a

 Vector    7  Occ=2.038841D-04  E=-2.318529D-04  Symmetry=a

 Vector    8  Occ=1.715978D-04  E=-1.931664D-04  Symmetry=a

 Vector    9  Occ=1.715978D-04  E=-1.931664D-04  Symmetry=a

 Vector   10  Occ=6.557160D-05  E=-9.651470D-05  Symmetry=a

 Vector   11  Occ=0.000000D+00  E= 4.364203D-01  Symmetry=a

 Vector   12  Occ=0.000000D+00  E= 8.780601D-01  Symmetry=a

 Vector   13  Occ=0.000000D+00  E= 1.079283D+00  Symmetry=a

 Vector   14  Occ=0.000000D+00  E= 1.343100D+00  Symmetry=a

 Vector   15  Occ=0.000000D+00  E= 1.343100D+00  Symmetry=a

 Vector   16  Occ=0.000000D+00  E= 1.459261D+00  Symmetry=a

 Vector   17  Occ=0.000000D+00  E= 1.459261D+00  Symmetry=a

 Vector   18  Occ=0.000000D+00  E= 1.927472D+00  Symmetry=a

 Vector   19  Occ=0.000000D+00  E= 1.927472D+00  Symmetry=a

 Vector   20  Occ=0.000000D+00  E= 2.038645D+00  Symmetry=a

         Total SCF energy =     -1.069640172474

 Vector    1  Occ=2.000000D+00  E=-5.148570D-01

 Vector    2  Occ=0.000000D+00  E=-3.194742D-02

 Vector    3  Occ=0.000000D+00  E=-3.412005D-03

 Vector    4  Occ=0.000000D+00  E=-2.819578D-03

 Vector    5  Occ=0.000000D+00  E=-2.819578D-03

 Vector    6  Occ=0.000000D+00  E=-3.228186D-04

 Vector    7  Occ=0.000000D+00  E=-2.318529D-04

 Vector    8  Occ=0.000000D+00  E=-1.931664D-04

 Vector    9  Occ=0.000000D+00  E=-1.931664D-04

 Vector   10  Occ=0.000000D+00  E=-9.651470D-05

 Vector   11  Occ=0.000000D+00  E= 4.364203D-01

 Vector   12  Occ=0.000000D+00  E= 8.780601D-01

       Multipole analysis of the density wrt the origin
       ------------------------------------------------

     L   x y z        total         open         nuclear
     -   - - -        -----         ----         -------
     0   0 0 0     -0.000000      0.000000      2.000000

     1   1 0 0      0.000000      0.000000      0.000000
     1   0 1 0      0.000000      0.000000      0.000000
     1   0 0 1     -0.000000      0.000000      0.000000

     2   2 0 0     -1.922197      0.000000      0.000000
     2   1 1 0     -0.000000      0.000000      0.000000
     2   1 0 1     -0.000000      0.000000      0.000000
     2   0 2 0     -1.020749      0.000000      2.420000
     2   0 1 1      0.000000      0.000000      0.000000

 CCSD total energy / hartree       =        -1.119543213037038
 Total times  cpu:       38.8s     wall:       43.1s
