============================== echo of input deck ==============================
 echo
 start H2
 title "H2"

 memory total 24 gb

 geometry units bohr
 symmetry c1
        H  0.00000000  0.00000000  0.00000000
        H  0.00000000  2.45  0.00000000
 end

 basis
   * library cc-pVQZ
 end

 mcscf
   active  10
   actelec 2
   multiplicity 1
   maxiter 40
   vectors input H2.mos
   vectors output H2.mos
 end

 task mcscf

 scf
   vectors input H2.mos
   vectors output H2-2.45.mos
   noscf
 end

 tce
   2eorb
   2emet 13
   ccsd
   maxiter 300
   lshift 0.8
 end

# set tce:print_integrals T
# set tce:qorb 10
# set tce:qela 1
# set tce:qelb 1

 set tce:qducc T
 set tce:nactv 9
 set tce:nonhf T
 set tce:ducc_model 3

 set tce:printtol 0.02

 task tce
================================================================================

 Output coordinates in a.u. (scale by  1.000000000 to convert to a.u.)

  No.       Tag          Charge          X              Y              Z
 ---- ---------------- ---------- -------------- -------------- --------------
    1 H                    1.0000     0.00000000    -1.22500000     0.00000000
    2 H                    1.0000     0.00000000     1.22500000     0.00000000

 Vector    1  Occ=1.887314D+00  E=-4.897740D-01  Symmetry=a

 Vector    2  Occ=9.985188D-02  E=-4.105282D-02  Symmetry=a

 Vector    3  Occ=4.434449D-03  E=-2.925943D-03  Symmetry=a

 Vector    4  Occ=3.745237D-03  E=-2.448240D-03  Symmetry=a

 Vector    5  Occ=3.745237D-03  E=-2.448240D-03  Symmetry=a

 Vector    6  Occ=3.276341D-04  E=-3.028052D-04  Symmetry=a

 Vector    7  Occ=1.908546D-04  E=-2.012251D-04  Symmetry=a

 Vector    8  Occ=1.654394D-04  E=-1.719695D-04  Symmetry=a

 Vector    9  Occ=1.654394D-04  E=-1.719695D-04  Symmetry=a

 Vector   10  Occ=6.005105D-05  E=-8.065510D-05  Symmetry=a

 Vector   11  Occ=0.000000D+00  E= 4.538845D-01  Symmetry=a

 Vector   12  Occ=0.000000D+00  E= 8.669206D-01  Symmetry=a

 Vector   13  Occ=0.000000D+00  E= 1.073490D+00  Symmetry=a

 Vector   14  Occ=0.000000D+00  E= 1.365989D+00  Symmetry=a

 Vector   15  Occ=0.000000D+00  E= 1.365989D+00  Symmetry=a

 Vector   16  Occ=0.000000D+00  E= 1.503393D+00  Symmetry=a

 Vector   17  Occ=0.000000D+00  E= 1.503393D+00  Symmetry=a

 Vector   18  Occ=0.000000D+00  E= 1.941832D+00  Symmetry=a

 Vector   19  Occ=0.000000D+00  E= 1.941832D+00  Symmetry=a

 Vector   20  Occ=0.000000D+00  E= 2.040253D+00  Symmetry=a

         Total SCF energy =     -1.042500669330

 Vector    1  Occ=2.000000D+00  E=-4.897740D-01

 Vector    2  Occ=0.000000D+00  E=-4.105282D-02

 Vector    3  Occ=0.000000D+00  E=-2.925943D-03

 Vector    4  Occ=0.000000D+00  E=-2.448240D-03

 Vector    5  Occ=0.000000D+00  E=-2.448240D-03

 Vector    6  Occ=0.000000D+00  E=-3.028052D-04

 Vector    7  Occ=0.000000D+00  E=-2.012251D-04

 Vector    8  Occ=0.000000D+00  E=-1.719695D-04

 Vector    9  Occ=0.000000D+00  E=-1.719695D-04

 Vector   10  Occ=0.000000D+00  E=-8.065510D-05

 Vector   11  Occ=0.000000D+00  E= 4.538845D-01

 Vector   12  Occ=0.000000D+00  E= 8.669206D-01

       Multipole analysis of the density wrt the origin
       ------------------------------------------------

     L   x y z        total         open         nuclear
     -   - - -        -----         ----         -------
     0   0 0 0     -0.000000      0.000000      2.000000

     1   1 0 0      0.000000      0.000000      0.000000
     1   0 1 0      0.000000      0.000000      0.000000
     1   0 0 1      0.000000      0.000000      0.000000

     2   2 0 0     -2.015983      0.000000      0.000000
     2   1 1 0     -0.000000      0.000000      0.000000
     2   1 0 1     -0.000000      0.000000      0.000000
     2   0 2 0     -0.992484      0.000000      3.001250
     2   0 1 1      0.000000      0.000000      0.000000

 CCSD total energy / hartree       =        -1.097523073788182
 Total times  cpu:       39.6s     wall:       43.7s
