============================== echo of input deck ==============================
 echo
 start H2
 title "H2"

 memory total 24 gb

 geometry units bohr
 symmetry c1
        H  0.00000000  0.00000000  0.00000000
        H  0.00000000  2.80  0.00000000
 end

 basis
   * library cc-pVQZ
 end

 mcscf
   active  10
   actelec 2
   multiplicity 1
   maxiter 40
   vectors input H2.mos
   vectors output H2.mos
 end

 task mcscf

 scf
   vectors input H2.mos
   vectors output H2-2.80.mos
   noscf
 end

 tce
   2eorb
   2emet 13
   ccsd
   maxiter 300
   lshift 0.8
 end

# set tce:print_integrals T
# set tce:qorb 10
# set tce:qela 1
# set tce:qelb 1

 set tce:qducc T
 set tce:nactv 9
 set tce:nonhf T
 set tce:ducc_model 3

 set tce:printtol 0.02

 task tce
================================================================================

 Output coordinates in a.u. (scale by  1.000000000 to convert to a.u.)

  No.       Tag          Charge          X              Y              Z
 ---- ---------------- ---------- -------------- -------------- --------------
    1 H                    1.0000     0.00000000    -1.40000000     0.00000000
    2 H                    1.0000     0.00000000     1.40000000     0.00000000

 Vector    1  Occ=1.831916D+00  E=-4.577807D-01  Symmetry=a

 Vector    2  Occ=1.573512D-01  E=-5.745576D-02  Symmetry=a

 Vector    3  Occ=3.709655D-03  E=-2.315989D-03  Symmetry=a

 Vector    4  Occ=3.106164D-03  E=-1.916971D-03  Symmetry=a

 Vector    5  Occ=3.106164D-03  E=-1.916971D-03  Symmetry=a

 Vector    6  Occ=3.122418D-04  E=-2.545819D-04  Symmetry=a

 Vector    7  Occ=1.588964D-04  E=-1.538527D-04  Symmetry=a

 Vector    8  Occ=1.441716D-04  E=-1.366429D-04  Symmetry=a

 Vector    9  Occ=1.441716D-04  E=-1.366429D-04  Symmetry=a

 Vector   10  Occ=5.173528D-05  E=-6.132694D-05  Symmetry=a

 Vector   11  Occ=0.000000D+00  E= 4.707841D-01  Symmetry=a

 Vector   12  Occ=0.000000D+00  E= 8.439783D-01  Symmetry=a

 Vector   13  Occ=0.000000D+00  E= 1.063945D+00  Symmetry=a

 Vector   14  Occ=0.000000D+00  E= 1.389853D+00  Symmetry=a

 Vector   15  Occ=0.000000D+00  E= 1.389853D+00  Symmetry=a

 Vector   16  Occ=0.000000D+00  E= 1.562879D+00  Symmetry=a

 Vector   17  Occ=0.000000D+00  E= 1.562879D+00  Symmetry=a

 Vector   18  Occ=0.000000D+00  E= 1.973338D+00  Symmetry=a

 Vector   19  Occ=0.000000D+00  E= 1.973338D+00  Symmetry=a

 Vector   20  Occ=0.000000D+00  E= 1.977324D+00  Symmetry=a

         Total SCF energy =     -1.005617947215

 Vector    1  Occ=2.000000D+00  E=-4.577807D-01

 Vector    2  Occ=0.000000D+00  E=-5.745576D-02

 Vector    3  Occ=0.000000D+00  E=-2.315989D-03

 Vector    4  Occ=0.000000D+00  E=-1.916971D-03

 Vector    5  Occ=0.000000D+00  E=-1.916971D-03

 Vector    6  Occ=0.000000D+00  E=-2.545819D-04

 Vector    7  Occ=0.000000D+00  E=-1.538527D-04

 Vector    8  Occ=0.000000D+00  E=-1.366429D-04

 Vector    9  Occ=0.000000D+00  E=-1.366429D-04

 Vector   10  Occ=0.000000D+00  E=-6.132694D-05

 Vector   11  Occ=0.000000D+00  E= 4.707841D-01

 Vector   12  Occ=0.000000D+00  E= 8.439783D-01

       Multipole analysis of the density wrt the origin
       ------------------------------------------------

     L   x y z        total         open         nuclear
     -   - - -        -----         ----         -------
     0   0 0 0     -0.000000      0.000000      2.000000

     1   1 0 0     -0.000000      0.000000      0.000000
     1   0 1 0      0.000000      0.000000      0.000000
     1   0 0 1      0.000000      0.000000      0.000000

     2   2 0 0     -2.117574      0.000000      0.000000
     2   1 1 0     -0.000000      0.000000      0.000000
     2   1 0 1     -0.000000      0.000000      0.000000
     2   0 2 0     -0.954814      0.000000      3.920000
     2   0 1 1      0.000000      0.000000      0.000000

 CCSD total energy / hartree       =        -1.070019553968364
 Total times  cpu:       37.4s     wall:       40.8s
