============================== echo of input deck ==============================
 echo
 start H2
 title "H2"

 memory total 24 gb

 geometry units bohr
 symmetry c1
        H  0.00000000  0.00000000  0.00000000
        H  0.00000000  4.60  0.00000000
 end

 basis
   * library cc-pVQZ
 end

 mcscf
   active  10
   actelec 2
   multiplicity 1
   maxiter 40
   vectors input H2.mos
   vectors output H2.mos
 end

 task mcscf

 scf
   vectors input H2.mos
   vectors output H2-4.60.mos
   noscf
 end

 tce
   2eorb
   2emet 13
   ccsd
   maxiter 300
   lshift 0.8
 end

# set tce:print_integrals T
# set tce:qorb 10
# set tce:qela 1
# set tce:qelb 1

 set tce:qducc T
 set tce:nactv 9
 set tce:nonhf T
 set tce:ducc_model 3

 set tce:printtol 0.02

 task tce
================================================================================

 Output coordinates in a.u. (scale by  1.000000000 to convert to a.u.)

  No.       Tag          Charge          X              Y              Z
 ---- ---------------- ---------- -------------- -------------- --------------
    1 H                    1.0000     0.00000000    -2.30000000     0.00000000
    2 H                    1.0000     0.00000000     2.30000000     0.00000000

 Vector    1  Occ=1.347813D+00  E=-3.238576D-01  Symmetry=a

 Vector    2  Occ=6.505416D-01  E=-1.753528D-01  Symmetry=a

 Vector    3  Occ=8.482889D-04  E=-4.460274D-04  Symmetry=a

 Vector    4  Occ=3.707893D-04  E=-2.090144D-04  Symmetry=a

 Vector    5  Occ=3.707893D-04  E=-2.090144D-04  Symmetry=a

 Vector    6  Occ=2.671246D-05  E=-1.700203D-05  Symmetry=a

 Vector    7  Occ=9.217952D-06  E=-7.789111D-06  Symmetry=a

 Vector    8  Occ=9.217952D-06  E=-7.789111D-06  Symmetry=a

 Vector    9  Occ=7.297662D-06  E=-6.817035D-06  Symmetry=a

 Vector   10  Occ=2.980748D-06  E=-3.854803D-06  Symmetry=a

 Vector   11  Occ=0.000000D+00  E= 4.569780D-01  Symmetry=a

 Vector   12  Occ=0.000000D+00  E= 8.052141D-01  Symmetry=a

 Vector   13  Occ=0.000000D+00  E= 8.074028D-01  Symmetry=a

 Vector   14  Occ=0.000000D+00  E= 1.282582D+00  Symmetry=a

 Vector   15  Occ=0.000000D+00  E= 1.282582D+00  Symmetry=a

 Vector   16  Occ=0.000000D+00  E= 1.681917D+00  Symmetry=a

 Vector   17  Occ=0.000000D+00  E= 1.798568D+00  Symmetry=a

 Vector   18  Occ=0.000000D+00  E= 1.798568D+00  Symmetry=a

 Vector   19  Occ=0.000000D+00  E= 1.950651D+00  Symmetry=a

 Vector   20  Occ=0.000000D+00  E= 1.984975D+00  Symmetry=a

         Total SCF energy =     -0.859233101705

 Vector    1  Occ=2.000000D+00  E=-3.238576D-01

 Vector    2  Occ=0.000000D+00  E=-1.753528D-01

 Vector    3  Occ=0.000000D+00  E=-4.460274D-04

 Vector    4  Occ=0.000000D+00  E=-2.090144D-04

 Vector    5  Occ=0.000000D+00  E=-2.090144D-04

 Vector    6  Occ=0.000000D+00  E=-1.700203D-05

 Vector    7  Occ=0.000000D+00  E=-7.789111D-06

 Vector    8  Occ=0.000000D+00  E=-7.789111D-06

 Vector    9  Occ=0.000000D+00  E=-6.817035D-06

 Vector   10  Occ=0.000000D+00  E=-3.854803D-06

 Vector   11  Occ=0.000000D+00  E= 4.569780D-01

 Vector   12  Occ=0.000000D+00  E= 8.052141D-01

       Multipole analysis of the density wrt the origin
       ------------------------------------------------

     L   x y z        total         open         nuclear
     -   - - -        -----         ----         -------
     0   0 0 0     -0.000000      0.000000      2.000000

     1   1 0 0     -0.000000      0.000000      0.000000
     1   0 1 0     -0.000000      0.000000      0.000000
     1   0 0 1      0.000000      0.000000      0.000000

     2   2 0 0     -2.189850      0.000000      0.000000
     2   1 1 0     -0.000000      0.000000      0.000000
     2   1 0 1      0.000000      0.000000      0.000000
     2   0 2 0     -1.086403      0.000000     10.580000
     2   0 1 1      0.000000      0.000000      0.000000

 CCSD total energy / hartree       =        -1.006429419859434
 Total times  cpu:       37.2s     wall:       40.1s
