============================== echo of input deck ==============================
 echo
 start H2
 title "H2"

 memory total 24 gb

 geometry units bohr
 symmetry c1
        H  0.00000000  0.00000000  0.00000000
        H  0.00000000  5.25  0.00000000
 end

 basis
   * library cc-pVQZ
 end

 mcscf
   active  10
   actelec 2
   multiplicity 1
   maxiter 40
   vectors input H2.mos
   vectors output H2.mos
 end

 task mcscf

 scf
   vectors input H2.mos
   vectors output H2-5.25.mos
   noscf
 end

 tce
   2eorb
   2emet 13
   ccsd
   maxiter 300
   lshift 0.8
 end

# set tce:print_integrals T
# set tce:qorb 10
# set tce:qela 1
# set tce:qelb 1

 set tce:qducc T
 set tce:nactv 9
 set tce:nonhf T
 set tce:ducc_model 3

 set tce:printtol 0.02

 task tce
================================================================================

 Output coordinates in a.u. (scale by  1.000000000 to convert to a.u.)

  No.       Tag          Charge          X              Y              Z
 ---- ---------------- ---------- -------------- -------------- --------------
    1 H                    1.0000     0.00000000    -2.62500000     0.00000000
    2 H                    1.0000     0.00000000     2.62500000     0.00000000

 Vector    1  Occ=1.215758D+00  E=-2.954591D-01  Symmetry=a

 Vector    2  Occ=7.835682D-01  E=-2.041511D-01  Symmetry=a

 Vector    3  Occ=3.969228D-04  E=-2.062901D-04  Symmetry=a

 Vector    4  Occ=1.323136D-04  E=-7.506019D-05  Symmetry=a

 Vector    5  Occ=1.323136D-04  E=-7.506019D-05  Symmetry=a

 Vector    6  Occ=6.211108D-06  E=-3.967829D-06  Symmetry=a

 Vector    7  Occ=1.790286D-06  E=-1.716904D-06  Symmetry=a

 Vector    8  Occ=1.523255D-06  E=-1.360308D-06  Symmetry=a

 Vector    9  Occ=1.523255D-06  E=-1.360308D-06  Symmetry=a

 Vector   10  Occ=8.154847D-07  E=-1.057043D-06  Symmetry=a

 Vector   11  Occ=0.000000D+00  E= 4.451256D-01  Symmetry=a

 Vector   12  Occ=0.000000D+00  E= 7.012040D-01  Symmetry=a

 Vector   13  Occ=0.000000D+00  E= 7.979496D-01  Symmetry=a

 Vector   14  Occ=0.000000D+00  E= 1.185072D+00  Symmetry=a

 Vector   15  Occ=0.000000D+00  E= 1.185072D+00  Symmetry=a

 Vector   16  Occ=0.000000D+00  E= 1.718831D+00  Symmetry=a

 Vector   17  Occ=0.000000D+00  E= 1.803507D+00  Symmetry=a

 Vector   18  Occ=0.000000D+00  E= 1.803507D+00  Symmetry=a

 Vector   19  Occ=0.000000D+00  E= 1.872690D+00  Symmetry=a

 Vector   20  Occ=0.000000D+00  E= 2.024050D+00  Symmetry=a

         Total SCF energy =     -0.824972858490

 Vector    1  Occ=2.000000D+00  E=-2.954591D-01

 Vector    2  Occ=0.000000D+00  E=-2.041511D-01

 Vector    3  Occ=0.000000D+00  E=-2.062901D-04

 Vector    4  Occ=0.000000D+00  E=-7.506019D-05

 Vector    5  Occ=0.000000D+00  E=-7.506019D-05

 Vector    6  Occ=0.000000D+00  E=-3.967829D-06

 Vector    7  Occ=0.000000D+00  E=-1.716904D-06

 Vector    8  Occ=0.000000D+00  E=-1.360308D-06

 Vector    9  Occ=0.000000D+00  E=-1.360308D-06

 Vector   10  Occ=0.000000D+00  E=-1.057043D-06

 Vector   11  Occ=0.000000D+00  E= 4.451256D-01

 Vector   12  Occ=0.000000D+00  E= 7.012040D-01

       Multipole analysis of the density wrt the origin
       ------------------------------------------------

     L   x y z        total         open         nuclear
     -   - - -        -----         ----         -------
     0   0 0 0     -0.000000      0.000000      2.000000

     1   1 0 0     -0.000000      0.000000      0.000000
     1   0 1 0     -0.000000      0.000000      0.000000
     1   0 0 1      0.000000      0.000000      0.000000

     2   2 0 0     -2.141814      0.000000      0.000000
     2   1 1 0     -0.000000      0.000000      0.000000
     2   1 0 1      0.000000      0.000000      0.000000
     2   0 2 0     -1.242255      0.000000     13.781250
     2   0 1 1      0.000000      0.000000      0.000000

 CCSD total energy / hartree       =        -1.002267709713703
 Total times  cpu:       35.8s     wall:       38.8s
