============================== echo of input deck ==============================
 echo
 start H2
 title "H2"

 memory total 24 gb

 geometry units bohr
 symmetry c1
        H  0.00000000  0.00000000  0.00000000
        H  0.00000000  5.90  0.00000000
 end

 basis
   * library cc-pVQZ
 end

 mcscf
   active  10
   actelec 2
   multiplicity 1
   maxiter 40
   vectors input H2.mos
   vectors output H2.mos
 end

 task mcscf

 scf
   vectors input H2.mos
   vectors output H2-5.90.mos
   noscf
 end

 tce
   2eorb
   2emet 13
   ccsd
   maxiter 300
   lshift 0.8
 end

# set tce:print_integrals T
# set tce:qorb 10
# set tce:qela 1
# set tce:qelb 1

 set tce:qducc T
 set tce:nactv 9
 set tce:nonhf T
 set tce:ducc_model 3

 set tce:printtol 0.02

 task tce
================================================================================

 Output coordinates in a.u. (scale by  1.000000000 to convert to a.u.)

  No.       Tag          Charge          X              Y              Z
 ---- ---------------- ---------- -------------- -------------- --------------
    1 H                    1.0000     0.00000000    -2.95000000     0.00000000
    2 H                    1.0000     0.00000000     2.95000000     0.00000000

 Vector    1  Occ=1.130299D+00  E=-2.774252D-01  Symmetry=a

 Vector    2  Occ=8.694324D-01  E=-2.223976D-01  Symmetry=a

 Vector    3  Occ=1.703237D-04  E=-8.950950D-05  Symmetry=a

 Vector    4  Occ=4.802109D-05  E=-2.737570D-05  Symmetry=a

 Vector    5  Occ=4.802109D-05  E=-2.737570D-05  Symmetry=a

 Vector    6  Occ=1.344893D-06  E=-8.835551D-07  Symmetry=a

 Vector    7  Occ=4.721460D-07  E=-4.485870D-07  Symmetry=a

 Vector    8  Occ=2.238763D-07  E=-2.780017D-07  Symmetry=a

 Vector    9  Occ=1.325049D-07  E=-1.190646D-07  Symmetry=a

 Vector   10  Occ=1.325049D-07  E=-1.190646D-07  Symmetry=a

 Vector   11  Occ=0.000000D+00  E= 4.337156D-01  Symmetry=a

 Vector   12  Occ=0.000000D+00  E= 6.566156D-01  Symmetry=a

 Vector   13  Occ=0.000000D+00  E= 8.159918D-01  Symmetry=a

 Vector   14  Occ=0.000000D+00  E= 1.152844D+00  Symmetry=a

 Vector   15  Occ=0.000000D+00  E= 1.152844D+00  Symmetry=a

 Vector   16  Occ=0.000000D+00  E= 1.753872D+00  Symmetry=a

 Vector   17  Occ=0.000000D+00  E= 1.815798D+00  Symmetry=a

 Vector   18  Occ=0.000000D+00  E= 1.815798D+00  Symmetry=a

 Vector   19  Occ=0.000000D+00  E= 1.860096D+00  Symmetry=a

 Vector   20  Occ=0.000000D+00  E= 2.038895D+00  Symmetry=a

         Total SCF energy =     -0.799482082359

 Vector    1  Occ=2.000000D+00  E=-2.774252D-01

 Vector    2  Occ=0.000000D+00  E=-2.223976D-01

 Vector    3  Occ=0.000000D+00  E=-8.950950D-05

 Vector    4  Occ=0.000000D+00  E=-2.737570D-05

 Vector    5  Occ=0.000000D+00  E=-2.737570D-05

 Vector    6  Occ=0.000000D+00  E=-8.835551D-07

 Vector    7  Occ=0.000000D+00  E=-4.485870D-07

 Vector    8  Occ=0.000000D+00  E=-2.780017D-07

 Vector    9  Occ=0.000000D+00  E=-1.190646D-07

 Vector   10  Occ=0.000000D+00  E=-1.190646D-07

 Vector   11  Occ=0.000000D+00  E= 4.337156D-01

 Vector   12  Occ=0.000000D+00  E= 6.566156D-01

       Multipole analysis of the density wrt the origin
       ------------------------------------------------

     L   x y z        total         open         nuclear
     -   - - -        -----         ----         -------
     0   0 0 0     -0.000000      0.000000      2.000000

     1   1 0 0     -0.000000      0.000000      0.000000
     1   0 1 0     -0.000000      0.000000      0.000000
     1   0 0 1      0.000000      0.000000      0.000000

     2   2 0 0     -2.098695      0.000000      0.000000
     2   1 1 0     -0.000000      0.000000      0.000000
     2   1 0 1      0.000000      0.000000      0.000000
     2   0 2 0     -1.400455      0.000000     17.405000
     2   0 1 1      0.000000      0.000000      0.000000

 CCSD total energy / hartree       =        -1.000737485091290
 Total times  cpu:       37.6s     wall:       40.4s
