============================== echo of input deck ==============================
 echo
 start H2O
 title "H2O"

 memory total 24 gb

 geometry units bohr
 symmetry c1
        O  0.00000000  0.00000000  0.00000000
        H  0.00000000  1.53928075  0.00000000
        H  1.72558000 -0.64860000  0.00000000
 end

 basis spherical
   * library cc-pVTZ
 end

 mcscf
   active  8
   actelec 10
   multiplicity 1
   maxiter 40
   vectors input h2o.mos
   vectors output h2o.mos
 end

 task mcscf

 scf
   vectors input h2o.mos
   vectors output h2o-trash.mos
   noscf
 end

 tce
   2eorb
   2emet 13
   ccsd
 end

 set tce:print_integrals T
 set tce:qorb 8
 set tce:qela 5
 set tce:qelb 5

# set tce:qducc T
# set tce:nactv 3
# set tce:nonhf T
# set tce:ducc_model 3

 set tce:printtol 0.02

 task tce
================================================================================

 Output coordinates in a.u. (scale by  1.000000000 to convert to a.u.)

  No.       Tag          Charge          X              Y              Z
 ---- ---------------- ---------- -------------- -------------- --------------
    1 O                    8.0000    -0.17255800    -0.08906808     0.00000000
    2 H                    1.0000    -0.17255800     1.45021268     0.00000000
    3 H                    1.0000     1.55302200    -0.73766808     0.00000000

 Vector    1  Occ=1.999987D+00  E=-2.052984D+01  Symmetry=a

 Vector    2  Occ=1.999163D+00  E=-1.392329D+00  Symmetry=a

 Vector    3  Occ=1.984445D+00  E=-7.825167D-01  Symmetry=a

 Vector    4  Occ=1.983654D+00  E=-5.941304D-01  Symmetry=a

 Vector    5  Occ=1.977905D+00  E=-5.317642D-01  Symmetry=a

 Vector    6  Occ=2.278058D-02  E=-2.560696D-02  Symmetry=a

 Vector    7  Occ=1.613348D-02  E=-1.953944D-02  Symmetry=a

 Vector    8  Occ=1.593073D-02  E=-1.595576D-02  Symmetry=a

 Vector    9  Occ=0.000000D+00  E= 2.736789D-01  Symmetry=a

 Vector   10  Occ=0.000000D+00  E= 3.341505D-01  Symmetry=a

 Vector   11  Occ=0.000000D+00  E= 6.219399D-01  Symmetry=a

 Vector   12  Occ=0.000000D+00  E= 6.538172D-01  Symmetry=a

 Vector   13  Occ=0.000000D+00  E= 8.098524D-01  Symmetry=a

 Vector   14  Occ=0.000000D+00  E= 8.586400D-01  Symmetry=a

 Vector   15  Occ=0.000000D+00  E= 9.740051D-01  Symmetry=a

 Vector   16  Occ=0.000000D+00  E= 1.068394D+00  Symmetry=a

 Vector   17  Occ=0.000000D+00  E= 1.215117D+00  Symmetry=a

 Vector   18  Occ=0.000000D+00  E= 1.367894D+00  Symmetry=a

         Total SCF energy =    -76.031188467488

 Vector    2  Occ=2.000000D+00  E=-1.392329D+00

 Vector    3  Occ=2.000000D+00  E=-7.825167D-01

 Vector    4  Occ=2.000000D+00  E=-5.941304D-01

 Vector    5  Occ=2.000000D+00  E=-5.317642D-01

 Vector    6  Occ=0.000000D+00  E=-2.560696D-02

 Vector    7  Occ=0.000000D+00  E=-1.953944D-02

 Vector    8  Occ=0.000000D+00  E=-1.595576D-02

 Vector    9  Occ=0.000000D+00  E= 2.736789D-01

 Vector   10  Occ=0.000000D+00  E= 3.341505D-01

 Vector   11  Occ=0.000000D+00  E= 6.219399D-01

 Vector   12  Occ=0.000000D+00  E= 6.538172D-01

 Vector   13  Occ=0.000000D+00  E= 8.098524D-01

 Vector   14  Occ=0.000000D+00  E= 8.586400D-01

 Vector   15  Occ=0.000000D+00  E= 9.740051D-01

       Multipole analysis of the density wrt the origin
       ------------------------------------------------

     L   x y z        total         open         nuclear
     -   - - -        -----         ----         -------
     0   0 0 0     -0.000000      0.000000     10.000000

     1   1 0 0      0.609189      0.000000     -0.000000
     1   0 1 0      0.353470      0.000000      0.000000
     1   0 0 1     -0.000000      0.000000      0.000000

     2   2 0 0     -3.970162      0.000000      2.679864
     2   1 1 0     -0.785282      0.000000     -1.272905
     2   1 0 1     -0.000000      0.000000      0.000000
     2   0 2 0     -3.703909      0.000000      2.710736
     2   0 1 1     -0.000000      0.000000      0.000000

 CCSD total energy / hartree       =       -76.118451548657774
 Total times  cpu:      138.4s     wall:      195.0s
