============================== echo of input deck ==============================
 echo
 start H2O
 title "H2O"

 memory total 24 gb

 geometry units bohr
 symmetry c1
        O  0.00000000  0.00000000  0.00000000
        H  0.00000000  1.57614975  0.00000000
        H  1.72558000 -0.64860000  0.00000000
 end

 basis spherical
   * library cc-pVTZ
 end

 mcscf
   active  8
   actelec 10
   multiplicity 1
   maxiter 40
   vectors input h2o.mos
   vectors output h2o.mos
 end

 task mcscf

 scf
   vectors input h2o.mos
   vectors output h2o-trash.mos
   noscf
 end

 tce
   2eorb
   2emet 13
   ccsd
 end

 set tce:print_integrals T
 set tce:qorb 8
 set tce:qela 5
 set tce:qelb 5

# set tce:qducc T
# set tce:nactv 3
# set tce:nonhf T
# set tce:ducc_model 3

 set tce:printtol 0.02

 task tce
================================================================================

 Output coordinates in a.u. (scale by  1.000000000 to convert to a.u.)

  No.       Tag          Charge          X              Y              Z
 ---- ---------------- ---------- -------------- -------------- --------------
    1 O                    8.0000    -0.17255800    -0.09275498     0.00000000
    2 H                    1.0000    -0.17255800     1.48339478     0.00000000
    3 H                    1.0000     1.55302200    -0.74135498     0.00000000

 Vector    1  Occ=1.999988D+00  E=-2.053174D+01  Symmetry=a

 Vector    2  Occ=1.999138D+00  E=-1.384887D+00  Symmetry=a

 Vector    3  Occ=1.983713D+00  E=-7.766612D-01  Symmetry=a

 Vector    4  Occ=1.983478D+00  E=-5.926117D-01  Symmetry=a

 Vector    5  Occ=1.977787D+00  E=-5.306428D-01  Symmetry=a

 Vector    6  Occ=2.290192D-02  E=-2.560388D-02  Symmetry=a

 Vector    7  Occ=1.669895D-02  E=-2.023156D-02  Symmetry=a

 Vector    8  Occ=1.629608D-02  E=-1.597399D-02  Symmetry=a

 Vector    9  Occ=0.000000D+00  E= 2.774851D-01  Symmetry=a

 Vector   10  Occ=0.000000D+00  E= 3.345981D-01  Symmetry=a

 Vector   11  Occ=0.000000D+00  E= 6.187699D-01  Symmetry=a

 Vector   12  Occ=0.000000D+00  E= 6.532048D-01  Symmetry=a

 Vector   13  Occ=0.000000D+00  E= 8.097084D-01  Symmetry=a

 Vector   14  Occ=0.000000D+00  E= 8.569248D-01  Symmetry=a

 Vector   15  Occ=0.000000D+00  E= 9.740422D-01  Symmetry=a

 Vector   16  Occ=0.000000D+00  E= 1.075999D+00  Symmetry=a

 Vector   17  Occ=0.000000D+00  E= 1.209457D+00  Symmetry=a

 Vector   18  Occ=0.000000D+00  E= 1.370050D+00  Symmetry=a

         Total SCF energy =    -76.038800441228

 Vector    2  Occ=2.000000D+00  E=-1.384887D+00

 Vector    3  Occ=2.000000D+00  E=-7.766612D-01

 Vector    4  Occ=2.000000D+00  E=-5.926117D-01

 Vector    5  Occ=2.000000D+00  E=-5.306428D-01

 Vector    6  Occ=0.000000D+00  E=-2.560388D-02

 Vector    7  Occ=0.000000D+00  E=-2.023156D-02

 Vector    8  Occ=0.000000D+00  E=-1.597399D-02

 Vector    9  Occ=0.000000D+00  E= 2.774851D-01

 Vector   10  Occ=0.000000D+00  E= 3.345981D-01

 Vector   11  Occ=0.000000D+00  E= 6.187699D-01

 Vector   12  Occ=0.000000D+00  E= 6.532048D-01

 Vector   13  Occ=0.000000D+00  E= 8.097084D-01

 Vector   14  Occ=0.000000D+00  E= 8.569248D-01

 Vector   15  Occ=0.000000D+00  E= 9.740422D-01

       Multipole analysis of the density wrt the origin
       ------------------------------------------------

     L   x y z        total         open         nuclear
     -   - - -        -----         ----         -------
     0   0 0 0     -0.000000      0.000000     10.000000

     1   1 0 0      0.606519      0.000000     -0.000000
     1   0 1 0      0.360292      0.000000      0.000000
     1   0 0 1     -0.000000      0.000000      0.000000

     2   2 0 0     -3.987371      0.000000      2.679864
     2   1 1 0     -0.789019      0.000000     -1.279267
     2   1 0 1      0.000000      0.000000      0.000000
     2   0 2 0     -3.681426      0.000000      2.818895
     2   0 1 1     -0.000000      0.000000      0.000000

 CCSD total energy / hartree       =       -76.126856133200533
 Total times  cpu:      135.4s     wall:      192.6s
