============================== echo of input deck ==============================
 echo
 start H2O
 title "H2O"

 memory total 24 gb

 geometry units bohr
 symmetry c1
        O  0.00000000  0.00000000  0.00000000
        H  0.00000000  1.68675675  0.00000000
        H  1.72558000 -0.64860000  0.00000000
 end

 basis spherical
   * library cc-pVTZ
 end

 mcscf
   active  8
   actelec 10
   multiplicity 1
   maxiter 40
   vectors input h2o.mos
   vectors output h2o.mos
 end

 task mcscf

 scf
   vectors input h2o.mos
   vectors output h2o-trash.mos
   noscf
 end

 tce
   2eorb
   2emet 13
   ccsd
 end

 set tce:print_integrals T
 set tce:qorb 8
 set tce:qela 5
 set tce:qelb 5

# set tce:qducc T
# set tce:nactv 3
# set tce:nonhf T
# set tce:ducc_model 3

 set tce:printtol 0.02

 task tce
================================================================================

 Output coordinates in a.u. (scale by  1.000000000 to convert to a.u.)

  No.       Tag          Charge          X              Y              Z
 ---- ---------------- ---------- -------------- -------------- --------------
    1 O                    8.0000    -0.17255800    -0.10381568     0.00000000
    2 H                    1.0000    -0.17255800     1.58294108     0.00000000
    3 H                    1.0000     1.55302200    -0.75241568     0.00000000

 Vector    1  Occ=1.999988D+00  E=-2.053722D+01  Symmetry=a

 Vector    2  Occ=1.999055D+00  E=-1.364833D+00  Symmetry=a

 Vector    3  Occ=1.982937D+00  E=-7.594493D-01  Symmetry=a

 Vector    4  Occ=1.981212D+00  E=-5.881706D-01  Symmetry=a

 Vector    5  Occ=1.977397D+00  E=-5.275729D-01  Symmetry=a

 Vector    6  Occ=2.330310D-02  E=-2.565142D-02  Symmetry=a

 Vector    7  Occ=1.931248D-02  E=-2.234470D-02  Symmetry=a

 Vector    8  Occ=1.679476D-02  E=-1.601405D-02  Symmetry=a

 Vector    9  Occ=0.000000D+00  E= 2.863966D-01  Symmetry=a

 Vector   10  Occ=0.000000D+00  E= 3.353136D-01  Symmetry=a

 Vector   11  Occ=0.000000D+00  E= 6.134071D-01  Symmetry=a

 Vector   12  Occ=0.000000D+00  E= 6.532900D-01  Symmetry=a

 Vector   13  Occ=0.000000D+00  E= 8.097354D-01  Symmetry=a

 Vector   14  Occ=0.000000D+00  E= 8.514957D-01  Symmetry=a

 Vector   15  Occ=0.000000D+00  E= 9.739741D-01  Symmetry=a

 Vector   16  Occ=0.000000D+00  E= 1.098705D+00  Symmetry=a

 Vector   17  Occ=0.000000D+00  E= 1.192056D+00  Symmetry=a

 Vector   18  Occ=0.000000D+00  E= 1.376535D+00  Symmetry=a

         Total SCF energy =    -76.052010961345

 Vector    2  Occ=2.000000D+00  E=-1.364833D+00

 Vector    3  Occ=2.000000D+00  E=-7.594493D-01

 Vector    4  Occ=2.000000D+00  E=-5.881706D-01

 Vector    5  Occ=2.000000D+00  E=-5.275729D-01

 Vector    6  Occ=0.000000D+00  E=-2.565142D-02

 Vector    7  Occ=0.000000D+00  E=-2.234470D-02

 Vector    8  Occ=0.000000D+00  E=-1.601405D-02

 Vector    9  Occ=0.000000D+00  E= 2.863966D-01

 Vector   10  Occ=0.000000D+00  E= 3.353136D-01

 Vector   11  Occ=0.000000D+00  E= 6.134071D-01

 Vector   12  Occ=0.000000D+00  E= 6.532900D-01

 Vector   13  Occ=0.000000D+00  E= 8.097354D-01

 Vector   14  Occ=0.000000D+00  E= 8.514957D-01

 Vector   15  Occ=0.000000D+00  E= 9.739741D-01

       Multipole analysis of the density wrt the origin
       ------------------------------------------------

     L   x y z        total         open         nuclear
     -   - - -        -----         ----         -------
     0   0 0 0     -0.000000      0.000000     10.000000

     1   1 0 0      0.598975      0.000000     -0.000000
     1   0 1 0      0.380687      0.000000      0.000000
     1   0 0 1     -0.000001      0.000000      0.000000

     2   2 0 0     -4.037829      0.000000      2.679864
     2   1 1 0     -0.800462      0.000000     -1.298353
     2   1 0 1     -0.000000      0.000000      0.000000
     2   0 2 0     -3.608282      0.000000      3.158053
     2   0 1 1     -0.000000      0.000000      0.000000

 CCSD total energy / hartree       =       -76.142566823735748
 Total times  cpu:      137.6s     wall:      192.7s
