============================== echo of input deck ==============================
 echo
 start H2O
 title "H2O"

 memory total 24 gb

 geometry units bohr
 symmetry c1
        O  0.00000000  0.00000000  0.00000000
        H  0.00000000  1.70519125  0.00000000
        H  1.72558000 -0.64860000  0.00000000
 end

 basis spherical
   * library cc-pVTZ
 end

 mcscf
   active  8
   actelec 10
   multiplicity 1
   maxiter 40
   vectors input h2o.mos
   vectors output h2o.mos
 end

 task mcscf

 scf
   vectors input h2o.mos
   vectors output h2o-trash.mos
   noscf
 end

 tce
   2eorb
   2emet 13
   ccsd
 end

 set tce:print_integrals T
 set tce:qorb 8
 set tce:qela 5
 set tce:qelb 5

# set tce:qducc T
# set tce:nactv 3
# set tce:nonhf T
# set tce:ducc_model 3

 set tce:printtol 0.02

 task tce
================================================================================

 Output coordinates in a.u. (scale by  1.000000000 to convert to a.u.)

  No.       Tag          Charge          X              Y              Z
 ---- ---------------- ---------- -------------- -------------- --------------
    1 O                    8.0000    -0.17255800    -0.10565913     0.00000000
    2 H                    1.0000    -0.17255800     1.59953213     0.00000000
    3 H                    1.0000     1.55302200    -0.75425913     0.00000000

 Vector    1  Occ=1.999988D+00  E=-2.053811D+01  Symmetry=a

 Vector    2  Occ=1.999041D+00  E=-1.361787D+00  Symmetry=a

 Vector    3  Occ=1.982846D+00  E=-7.566368D-01  Symmetry=a

 Vector    4  Occ=1.980750D+00  E=-5.874230D-01  Symmetry=a

 Vector    5  Occ=1.977328D+00  E=-5.270862D-01  Symmetry=a

 Vector    6  Occ=2.337520D-02  E=-2.566929D-02  Symmetry=a

 Vector    7  Occ=1.979461D-02  E=-2.268719D-02  Symmetry=a

 Vector    8  Occ=1.687798D-02  E=-1.601738D-02  Symmetry=a

 Vector    9  Occ=0.000000D+00  E= 2.874181D-01  Symmetry=a

 Vector   10  Occ=0.000000D+00  E= 3.353012D-01  Symmetry=a

 Vector   11  Occ=0.000000D+00  E= 6.129577D-01  Symmetry=a

 Vector   12  Occ=0.000000D+00  E= 6.535958D-01  Symmetry=a

 Vector   13  Occ=0.000000D+00  E= 8.098067D-01  Symmetry=a

 Vector   14  Occ=0.000000D+00  E= 8.505574D-01  Symmetry=a

 Vector   15  Occ=0.000000D+00  E= 9.739434D-01  Symmetry=a

 Vector   16  Occ=0.000000D+00  E= 1.102561D+00  Symmetry=a

 Vector   17  Occ=0.000000D+00  E= 1.189140D+00  Symmetry=a

 Vector   18  Occ=0.000000D+00  E= 1.377458D+00  Symmetry=a

         Total SCF energy =    -76.053057239366

 Vector    2  Occ=2.000000D+00  E=-1.361787D+00

 Vector    3  Occ=2.000000D+00  E=-7.566368D-01

 Vector    4  Occ=2.000000D+00  E=-5.874230D-01

 Vector    5  Occ=2.000000D+00  E=-5.270862D-01

 Vector    6  Occ=0.000000D+00  E=-2.566929D-02

 Vector    7  Occ=0.000000D+00  E=-2.268719D-02

 Vector    8  Occ=0.000000D+00  E=-1.601738D-02

 Vector    9  Occ=0.000000D+00  E= 2.874181D-01

 Vector   10  Occ=0.000000D+00  E= 3.353012D-01

 Vector   11  Occ=0.000000D+00  E= 6.129577D-01

 Vector   12  Occ=0.000000D+00  E= 6.535958D-01

 Vector   13  Occ=0.000000D+00  E= 8.098067D-01

 Vector   14  Occ=0.000000D+00  E= 8.505574D-01

 Vector   15  Occ=0.000000D+00  E= 9.739434D-01

       Multipole analysis of the density wrt the origin
       ------------------------------------------------

     L   x y z        total         open         nuclear
     -   - - -        -----         ----         -------
     0   0 0 0     -0.000000      0.000000     10.000000

     1   1 0 0      0.597759      0.000000     -0.000000
     1   0 1 0      0.384042      0.000000      0.000000
     1   0 0 1     -0.000001      0.000000      0.000000

     2   2 0 0     -4.046085      0.000000      2.679864
     2   1 1 0     -0.802364      0.000000     -1.301534
     2   1 0 1     -0.000000      0.000000      0.000000
     2   0 2 0     -3.595301      0.000000      3.216721
     2   0 1 1     -0.000000      0.000000      0.000000

 CCSD total energy / hartree       =       -76.144044260055011
 Total times  cpu:      135.4s     wall:      190.3s
