============================== echo of input deck ==============================
 echo
 start H2O
 title "H2O"

 memory total 24 gb

 geometry units bohr
 symmetry c1
        O  0.00000000  0.00000000  0.00000000
        H  0.00000000  1.74206025  0.00000000
        H  1.72558000 -0.64860000  0.00000000
 end

 basis spherical
   * library cc-pVTZ
 end

 mcscf
   active  8
   actelec 10
   multiplicity 1
   maxiter 40
   vectors input h2o.mos
   vectors output h2o.mos
 end

 task mcscf

 scf
   vectors input h2o.mos
   vectors output h2o-trash.mos
   noscf
 end

 tce
   2eorb
   2emet 13
   ccsd
 end

 set tce:print_integrals T
 set tce:qorb 8
 set tce:qela 5
 set tce:qelb 5

# set tce:qducc T
# set tce:nactv 3
# set tce:nonhf T
# set tce:ducc_model 3

 set tce:printtol 0.02

 task tce
================================================================================

 Output coordinates in a.u. (scale by  1.000000000 to convert to a.u.)

  No.       Tag          Charge          X              Y              Z
 ---- ---------------- ---------- -------------- -------------- --------------
    1 O                    8.0000    -0.17255800    -0.10934603     0.00000000
    2 H                    1.0000    -0.17255800     1.63271423     0.00000000
    3 H                    1.0000     1.55302200    -0.75794603     0.00000000

 Vector    1  Occ=1.999988D+00  E=-2.053982D+01  Symmetry=a

 Vector    2  Occ=1.999011D+00  E=-1.356031D+00  Symmetry=a

 Vector    3  Occ=1.982666D+00  E=-7.511017D-01  Symmetry=a

 Vector    4  Occ=1.979784D+00  E=-5.859544D-01  Symmetry=a

 Vector    5  Occ=1.977186D+00  E=-5.261991D-01  Symmetry=a

 Vector    6  Occ=2.352166D-02  E=-2.571497D-02  Symmetry=a

 Vector    7  Occ=2.080029D-02  E=-2.342309D-02  Symmetry=a

 Vector    8  Occ=1.704254D-02  E=-1.602295D-02  Symmetry=a

 Vector    9  Occ=0.000000D+00  E= 2.899907D-01  Symmetry=a

 Vector   10  Occ=0.000000D+00  E= 3.354460D-01  Symmetry=a

 Vector   11  Occ=0.000000D+00  E= 6.124229D-01  Symmetry=a

 Vector   12  Occ=0.000000D+00  E= 6.544649D-01  Symmetry=a

 Vector   13  Occ=0.000000D+00  E= 8.099853D-01  Symmetry=a

 Vector   14  Occ=0.000000D+00  E= 8.486566D-01  Symmetry=a

 Vector   15  Occ=0.000000D+00  E= 9.738627D-01  Symmetry=a

 Vector   16  Occ=0.000000D+00  E= 1.110558D+00  Symmetry=a

 Vector   17  Occ=0.000000D+00  E= 1.183308D+00  Symmetry=a

 Vector   18  Occ=0.000000D+00  E= 1.379350D+00  Symmetry=a

         Total SCF energy =    -76.054338722696

 Vector    2  Occ=2.000000D+00  E=-1.356031D+00

 Vector    3  Occ=2.000000D+00  E=-7.511017D-01

 Vector    4  Occ=2.000000D+00  E=-5.859544D-01

 Vector    5  Occ=2.000000D+00  E=-5.261991D-01

 Vector    6  Occ=0.000000D+00  E=-2.571497D-02

 Vector    7  Occ=0.000000D+00  E=-2.342309D-02

 Vector    8  Occ=0.000000D+00  E=-1.602295D-02

 Vector    9  Occ=0.000000D+00  E= 2.899907D-01

 Vector   10  Occ=0.000000D+00  E= 3.354460D-01

 Vector   11  Occ=0.000000D+00  E= 6.124229D-01

 Vector   12  Occ=0.000000D+00  E= 6.544649D-01

 Vector   13  Occ=0.000000D+00  E= 8.099853D-01

 Vector   14  Occ=0.000000D+00  E= 8.486566D-01

 Vector   15  Occ=0.000000D+00  E= 9.738627D-01

       Multipole analysis of the density wrt the origin
       ------------------------------------------------

     L   x y z        total         open         nuclear
     -   - - -        -----         ----         -------
     0   0 0 0     -0.000000      0.000000     10.000000

     1   1 0 0      0.595421      0.000000     -0.000000
     1   0 1 0      0.390651      0.000000      0.000000
     1   0 0 1     -0.000001      0.000000      0.000000

     2   2 0 0     -4.062375      0.000000      2.679864
     2   1 1 0     -0.806175      0.000000     -1.307897
     2   1 0 1     -0.000001      0.000000      0.000000
     2   0 2 0     -3.568792      0.000000      3.335890
     2   0 1 1     -0.000000      0.000000      0.000000

 CCSD total energy / hartree       =       -76.146197912133076
 Total times  cpu:      141.4s     wall:      199.9s
