============================== echo of input deck ==============================
 echo
 start H2O
 title "H2O"

 memory total 24 gb

 geometry units bohr
 symmetry c1
        O  0.00000000  0.00000000  0.00000000
        H  0.00000000  1.81579825  0.00000000
        H  1.72558000 -0.64860000  0.00000000
 end

 basis spherical
   * library cc-pVTZ
 end

 mcscf
   active  8
   actelec 10
   multiplicity 1
   maxiter 40
   vectors input h2o.mos
   vectors output h2o.mos
 end

 task mcscf

 scf
   vectors input h2o.mos
   vectors output h2o-trash.mos
   noscf
 end

 tce
   2eorb
   2emet 13
   ccsd
 end

 set tce:print_integrals T
 set tce:qorb 8
 set tce:qela 5
 set tce:qelb 5

# set tce:qducc T
# set tce:nactv 3
# set tce:nonhf T
# set tce:ducc_model 3

 set tce:printtol 0.02

 task tce
================================================================================

 Output coordinates in a.u. (scale by  1.000000000 to convert to a.u.)

  No.       Tag          Charge          X              Y              Z
 ---- ---------------- ---------- -------------- -------------- --------------
    1 O                    8.0000    -0.17255800    -0.11671983     0.00000000
    2 H                    1.0000    -0.17255800     1.69907843     0.00000000
    3 H                    1.0000     1.55302200    -0.76531983     0.00000000

 Vector    1  Occ=1.999988D+00  E=-2.054313D+01  Symmetry=a

 Vector    2  Occ=1.998948D+00  E=-1.345476D+00  Symmetry=a

 Vector    3  Occ=1.982313D+00  E=-7.403160D-01  Symmetry=a

 Vector    4  Occ=1.977693D+00  E=-5.829579D-01  Symmetry=a

 Vector    5  Occ=1.976876D+00  E=-5.245353D-01  Symmetry=a

 Vector    6  Occ=2.385608D-02  E=-2.595441D-02  Symmetry=a

 Vector    7  Occ=2.296188D-02  E=-2.477601D-02  Symmetry=a

 Vector    8  Occ=1.736443D-02  E=-1.602148D-02  Symmetry=a

 Vector    9  Occ=0.000000D+00  E= 2.942139D-01  Symmetry=a

 Vector   10  Occ=0.000000D+00  E= 3.355050D-01  Symmetry=a

 Vector   11  Occ=0.000000D+00  E= 6.120551D-01  Symmetry=a

 Vector   12  Occ=0.000000D+00  E= 6.574753D-01  Symmetry=a

 Vector   13  Occ=0.000000D+00  E= 8.106016D-01  Symmetry=a

 Vector   14  Occ=0.000000D+00  E= 8.447793D-01  Symmetry=a

 Vector   15  Occ=0.000000D+00  E= 9.736467D-01  Symmetry=a

 Vector   16  Occ=0.000000D+00  E= 1.126721D+00  Symmetry=a

 Vector   17  Occ=0.000000D+00  E= 1.171854D+00  Symmetry=a

 Vector   18  Occ=0.000000D+00  E= 1.378698D+00  Symmetry=a

         Total SCF energy =    -76.054109599011

 Vector    2  Occ=2.000000D+00  E=-1.345476D+00

 Vector    3  Occ=2.000000D+00  E=-7.403160D-01

 Vector    4  Occ=2.000000D+00  E=-5.829579D-01

 Vector    5  Occ=2.000000D+00  E=-5.245353D-01

 Vector    6  Occ=0.000000D+00  E=-2.595441D-02

 Vector    7  Occ=0.000000D+00  E=-2.477601D-02

 Vector    8  Occ=0.000000D+00  E=-1.602148D-02

 Vector    9  Occ=0.000000D+00  E= 2.942139D-01

 Vector   10  Occ=0.000000D+00  E= 3.355050D-01

 Vector   11  Occ=0.000000D+00  E= 6.120551D-01

 Vector   12  Occ=0.000000D+00  E= 6.574753D-01

 Vector   13  Occ=0.000000D+00  E= 8.106016D-01

 Vector   14  Occ=0.000000D+00  E= 8.447793D-01

 Vector   15  Occ=0.000000D+00  E= 9.736467D-01

       Multipole analysis of the density wrt the origin
       ------------------------------------------------

     L   x y z        total         open         nuclear
     -   - - -        -----         ----         -------
     0   0 0 0     -0.000000      0.000000     10.000000

     1   1 0 0      0.590925      0.000000     -0.000000
     1   0 1 0      0.403432      0.000000      0.000000
     1   0 0 1      0.000003      0.000000      0.000000

     2   2 0 0     -4.094314      0.000000      2.679864
     2   1 1 0     -0.813688      0.000000     -1.320621
     2   1 0 1     -0.000006      0.000000      0.000000
     2   0 2 0     -3.513632      0.000000      3.581570
     2   0 1 1     -0.000004      0.000000      0.000000

 CCSD total energy / hartree       =       -76.147750064277474
 Total times  cpu:      134.3s     wall:      190.0s
