============================== echo of input deck ==============================
 echo
 start H2O
 title "H2O"

 memory total 24 gb

 geometry units bohr
 symmetry c1
        O  0.00000000  0.00000000  0.00000000
        H  0.00000000  1.90797075  0.00000000
        H  1.72558000 -0.64860000  0.00000000
 end

 basis spherical
   * library cc-pVTZ
 end

 mcscf
   active  8
   actelec 10
   multiplicity 1
   maxiter 40
   vectors input h2o.mos
   vectors output h2o.mos
 end

 task mcscf

 scf
   vectors input h2o.mos
   vectors output h2o-trash.mos
   noscf
 end

 tce
   2eorb
   2emet 13
   ccsd
 end

 set tce:print_integrals T
 set tce:qorb 8
 set tce:qela 5
 set tce:qelb 5

# set tce:qducc T
# set tce:nactv 3
# set tce:nonhf T
# set tce:ducc_model 3

 set tce:printtol 0.02

 task tce
================================================================================

 Output coordinates in a.u. (scale by  1.000000000 to convert to a.u.)

  No.       Tag          Charge          X              Y              Z
 ---- ---------------- ---------- -------------- -------------- --------------
    1 O                    8.0000    -0.17255800    -0.12593708     0.00000000
    2 H                    1.0000    -0.17255800     1.78203368     0.00000000
    3 H                    1.0000     1.55302200    -0.77453708     0.00000000

 Vector    1  Occ=1.999989D+00  E=-2.054702D+01  Symmetry=a

 Vector    2  Occ=1.998863D+00  E=-1.333943D+00  Symmetry=a

 Vector    3  Occ=1.981890D+00  E=-7.274479D-01  Symmetry=a

 Vector    4  Occ=1.976560D+00  E=-5.790262D-01  Symmetry=a

 Vector    5  Occ=1.974623D+00  E=-5.226470D-01  Symmetry=a

 Vector    6  Occ=2.618736D-02  E=-2.727548D-02  Symmetry=a

 Vector    7  Occ=2.414220D-02  E=-2.550655D-02  Symmetry=a

 Vector    8  Occ=1.774555D-02  E=-1.599700D-02  Symmetry=a

 Vector    9  Occ=0.000000D+00  E= 2.982516D-01  Symmetry=a

 Vector   10  Occ=0.000000D+00  E= 3.352554D-01  Symmetry=a

 Vector   11  Occ=0.000000D+00  E= 6.120823D-01  Symmetry=a

 Vector   12  Occ=0.000000D+00  E= 6.635626D-01  Symmetry=a

 Vector   13  Occ=0.000000D+00  E= 8.118699D-01  Symmetry=a

 Vector   14  Occ=0.000000D+00  E= 8.398431D-01  Symmetry=a

 Vector   15  Occ=0.000000D+00  E= 9.732859D-01  Symmetry=a

 Vector   16  Occ=0.000000D+00  E= 1.144847D+00  Symmetry=a

 Vector   17  Occ=0.000000D+00  E= 1.159962D+00  Symmetry=a

 Vector   18  Occ=0.000000D+00  E= 1.345182D+00  Symmetry=a

         Total SCF energy =    -76.049704965594

 Vector    2  Occ=2.000000D+00  E=-1.333943D+00

 Vector    3  Occ=2.000000D+00  E=-7.274479D-01

 Vector    4  Occ=2.000000D+00  E=-5.790262D-01

 Vector    5  Occ=2.000000D+00  E=-5.226470D-01

 Vector    6  Occ=0.000000D+00  E=-2.727548D-02

 Vector    7  Occ=0.000000D+00  E=-2.550655D-02

 Vector    8  Occ=0.000000D+00  E=-1.599700D-02

 Vector    9  Occ=0.000000D+00  E= 2.982516D-01

 Vector   10  Occ=0.000000D+00  E= 3.352554D-01

 Vector   11  Occ=0.000000D+00  E= 6.120823D-01

 Vector   12  Occ=0.000000D+00  E= 6.635626D-01

 Vector   13  Occ=0.000000D+00  E= 8.118699D-01

 Vector   14  Occ=0.000000D+00  E= 8.398431D-01

 Vector   15  Occ=0.000000D+00  E= 9.732859D-01

       Multipole analysis of the density wrt the origin
       ------------------------------------------------

     L   x y z        total         open         nuclear
     -   - - -        -----         ----         -------
     0   0 0 0     -0.000000      0.000000     10.000000

     1   1 0 0      0.585693      0.000000     -0.000000
     1   0 1 0      0.418288      0.000000     -0.000000
     1   0 0 1     -0.000005      0.000000      0.000000

     2   2 0 0     -4.132907      0.000000      2.679864
     2   1 1 0     -0.822771      0.000000     -1.336526
     2   1 0 1     -0.000004      0.000000      0.000000
     2   0 2 0     -3.441453      0.000000      3.902433
     2   0 1 1     -0.000003      0.000000      0.000000

 CCSD total energy / hartree       =       -76.145632373365586
 Total times  cpu:      137.4s     wall:      192.1s
