============================== echo of input deck ==============================
 echo
 start H2O
 title "H2O"

 memory total 24 gb

 geometry units bohr
 symmetry c1
        O  0.00000000  0.00000000  0.00000000
        H  0.00000000  2.05544675  0.00000000
        H  1.72558000 -0.64860000  0.00000000
 end

 basis spherical
   * library cc-pVTZ
 end

 mcscf
   active  8
   actelec 10
   multiplicity 1
   maxiter 40
   vectors input h2o.mos
   vectors output h2o.mos
 end

 task mcscf

 scf
   vectors input h2o.mos
   vectors output h2o-trash.mos
   noscf
 end

 tce
   2eorb
   2emet 13
   ccsd
 end

 set tce:print_integrals T
 set tce:qorb 8
 set tce:qela 5
 set tce:qelb 5

# set tce:qducc T
# set tce:nactv 3
# set tce:nonhf T
# set tce:ducc_model 3

 set tce:printtol 0.02

 task tce
================================================================================

 Output coordinates in a.u. (scale by  1.000000000 to convert to a.u.)

  No.       Tag          Charge          X              Y              Z
 ---- ---------------- ---------- -------------- -------------- --------------
    1 O                    8.0000    -0.17255800    -0.14068468     0.00000000
    2 H                    1.0000    -0.17255800     1.91476208     0.00000000
    3 H                    1.0000     1.55302200    -0.78928468     0.00000000

 Vector    1  Occ=1.999989D+00  E=-2.055278D+01  Symmetry=a

 Vector    2  Occ=1.998715D+00  E=-1.319227D+00  Symmetry=a

 Vector    3  Occ=1.981281D+00  E=-7.087997D-01  Symmetry=a

 Vector    4  Occ=1.975967D+00  E=-5.723966D-01  Symmetry=a

 Vector    5  Occ=1.968750D+00  E=-5.204367D-01  Symmetry=a

 Vector    6  Occ=3.226009D-02  E=-3.075921D-02  Symmetry=a

 Vector    7  Occ=2.475358D-02  E=-2.572283D-02  Symmetry=a

 Vector    8  Occ=1.828366D-02  E=-1.590528D-02  Symmetry=a

 Vector    9  Occ=0.000000D+00  E= 3.045967D-01  Symmetry=a

 Vector   10  Occ=0.000000D+00  E= 3.353743D-01  Symmetry=a

 Vector   11  Occ=0.000000D+00  E= 6.115940D-01  Symmetry=a

 Vector   12  Occ=0.000000D+00  E= 6.788209D-01  Symmetry=a

 Vector   13  Occ=0.000000D+00  E= 8.152665D-01  Symmetry=a

 Vector   14  Occ=0.000000D+00  E= 8.318201D-01  Symmetry=a

 Vector   15  Occ=0.000000D+00  E= 9.723707D-01  Symmetry=a

 Vector   16  Occ=0.000000D+00  E= 1.132348D+00  Symmetry=a

 Vector   17  Occ=0.000000D+00  E= 1.178340D+00  Symmetry=a

 Vector   18  Occ=0.000000D+00  E= 1.284287D+00  Symmetry=a

         Total SCF energy =    -76.036151706010

 Vector    2  Occ=2.000000D+00  E=-1.319227D+00

 Vector    3  Occ=2.000000D+00  E=-7.087997D-01

 Vector    4  Occ=2.000000D+00  E=-5.723966D-01

 Vector    5  Occ=2.000000D+00  E=-5.204367D-01

 Vector    6  Occ=0.000000D+00  E=-3.075921D-02

 Vector    7  Occ=0.000000D+00  E=-2.572283D-02

 Vector    8  Occ=0.000000D+00  E=-1.590528D-02

 Vector    9  Occ=0.000000D+00  E= 3.045967D-01

 Vector   10  Occ=0.000000D+00  E= 3.353743D-01

 Vector   11  Occ=0.000000D+00  E= 6.115940D-01

 Vector   12  Occ=0.000000D+00  E= 6.788209D-01

 Vector   13  Occ=0.000000D+00  E= 8.152665D-01

 Vector   14  Occ=0.000000D+00  E= 8.318201D-01

 Vector   15  Occ=0.000000D+00  E= 9.723707D-01

       Multipole analysis of the density wrt the origin
       ------------------------------------------------

     L   x y z        total         open         nuclear
     -   - - -        -----         ----         -------
     0   0 0 0     -0.000000      0.000000     10.000000

     1   1 0 0      0.578217      0.000000     -0.000000
     1   0 1 0      0.438302      0.000000      0.000000
     1   0 0 1      0.000001      0.000000      0.000000

     2   2 0 0     -4.191379      0.000000      2.679864
     2   1 1 0     -0.836285      0.000000     -1.361974
     2   1 0 1      0.000001      0.000000      0.000000
     2   0 2 0     -3.321423      0.000000      4.447622
     2   0 1 1      0.000000      0.000000      0.000000

 CCSD total energy / hartree       =       -76.135865154716200
 Total times  cpu:      133.9s     wall:      188.5s
