============================== echo of input deck ==============================
 echo
 start H2O
 title "H2O"

 memory total 24 gb

 geometry units bohr
 symmetry c1
        O  0.00000000  0.00000000  0.00000000
        H  0.00000000  2.11075025  0.00000000
        H  1.72558000 -0.64860000  0.00000000
 end

 basis spherical
   * library cc-pVTZ
 end

 mcscf
   active  8
   actelec 10
   multiplicity 1
   maxiter 40
   vectors input h2o.mos
   vectors output h2o.mos
 end

 task mcscf

 scf
   vectors input h2o.mos
   vectors output h2o-trash.mos
   noscf
 end

 tce
   2eorb
   2emet 13
   ccsd
 end

 set tce:print_integrals T
 set tce:qorb 8
 set tce:qela 5
 set tce:qelb 5

# set tce:qducc T
# set tce:nactv 3
# set tce:nonhf T
# set tce:ducc_model 3

 set tce:printtol 0.02

 task tce
================================================================================

 Output coordinates in a.u. (scale by  1.000000000 to convert to a.u.)

  No.       Tag          Charge          X              Y              Z
 ---- ---------------- ---------- -------------- -------------- --------------
    1 O                    8.0000    -0.17255800    -0.14621503     0.00000000
    2 H                    1.0000    -0.17255800     1.96453523     0.00000000
    3 H                    1.0000     1.55302200    -0.79481503     0.00000000

 Vector    1  Occ=1.999989D+00  E=-2.055482D+01  Symmetry=a

 Vector    2  Occ=1.998656D+00  E=-1.314705D+00  Symmetry=a

 Vector    3  Occ=1.981081D+00  E=-7.024791D-01  Symmetry=a

 Vector    4  Occ=1.975754D+00  E=-5.697116D-01  Symmetry=a

 Vector    5  Occ=1.966137D+00  E=-5.198173D-01  Symmetry=a

 Vector    6  Occ=3.495517D-02  E=-3.220344D-02  Symmetry=a

 Vector    7  Occ=2.497192D-02  E=-2.577384D-02  Symmetry=a

 Vector    8  Occ=1.845698D-02  E=-1.585419D-02  Symmetry=a

 Vector    9  Occ=0.000000D+00  E= 3.065753D-01  Symmetry=a

 Vector   10  Occ=0.000000D+00  E= 3.354709D-01  Symmetry=a

 Vector   11  Occ=0.000000D+00  E= 6.111285D-01  Symmetry=a

 Vector   12  Occ=0.000000D+00  E= 6.855901D-01  Symmetry=a

 Vector   13  Occ=0.000000D+00  E= 8.169701D-01  Symmetry=a

 Vector   14  Occ=0.000000D+00  E= 8.288037D-01  Symmetry=a

 Vector   15  Occ=0.000000D+00  E= 9.719083D-01  Symmetry=a

 Vector   16  Occ=0.000000D+00  E= 1.124214D+00  Symmetry=a

 Vector   17  Occ=0.000000D+00  E= 1.185209D+00  Symmetry=a

 Vector   18  Occ=0.000000D+00  E= 1.266318D+00  Symmetry=a

         Total SCF energy =    -76.029669678863

 Vector    2  Occ=2.000000D+00  E=-1.314705D+00

 Vector    3  Occ=2.000000D+00  E=-7.024791D-01

 Vector    4  Occ=2.000000D+00  E=-5.697116D-01

 Vector    5  Occ=2.000000D+00  E=-5.198173D-01

 Vector    6  Occ=0.000000D+00  E=-3.220344D-02

 Vector    7  Occ=0.000000D+00  E=-2.577384D-02

 Vector    8  Occ=0.000000D+00  E=-1.585419D-02

 Vector    9  Occ=0.000000D+00  E= 3.065753D-01

 Vector   10  Occ=0.000000D+00  E= 3.354709D-01

 Vector   11  Occ=0.000000D+00  E= 6.111285D-01

 Vector   12  Occ=0.000000D+00  E= 6.855901D-01

 Vector   13  Occ=0.000000D+00  E= 8.169701D-01

 Vector   14  Occ=0.000000D+00  E= 8.288037D-01

 Vector   15  Occ=0.000000D+00  E= 9.719083D-01

       Multipole analysis of the density wrt the origin
       ------------------------------------------------

     L   x y z        total         open         nuclear
     -   - - -        -----         ----         -------
     0   0 0 0     -0.000000      0.000000     10.000000

     1   1 0 0      0.575706      0.000000     -0.000000
     1   0 1 0      0.444298      0.000000      0.000000
     1   0 0 1      0.000001      0.000000      0.000000

     2   2 0 0     -4.212196      0.000000      2.679864
     2   1 1 0     -0.840891      0.000000     -1.371517
     2   1 0 1      0.000001      0.000000      0.000000
     2   0 2 0     -3.275990      0.000000      4.662160
     2   0 1 1      0.000000      0.000000      0.000000

 CCSD total energy / hartree       =       -76.130845988169440
 Total times  cpu:      137.3s     wall:      191.8s
