============================== echo of input deck ==============================
 echo
 start H2O
 title "H2O"

 memory total 24 gb

 geometry units bohr
 symmetry c1
        O  0.00000000  0.00000000  0.00000000
        H  0.00000000  2.14761925  0.00000000
        H  1.72558000 -0.64860000  0.00000000
 end

 basis spherical
   * library cc-pVTZ
 end

 mcscf
   active  8
   actelec 10
   multiplicity 1
   maxiter 40
   vectors input h2o.mos
   vectors output h2o.mos
 end

 task mcscf

 scf
   vectors input h2o.mos
   vectors output h2o-trash.mos
   noscf
 end

 tce
   2eorb
   2emet 13
   ccsd
 end

 set tce:print_integrals T
 set tce:qorb 8
 set tce:qela 5
 set tce:qelb 5

# set tce:qducc T
# set tce:nactv 3
# set tce:nonhf T
# set tce:ducc_model 3

 set tce:printtol 0.02

 task tce
================================================================================

 Output coordinates in a.u. (scale by  1.000000000 to convert to a.u.)

  No.       Tag          Charge          X              Y              Z
 ---- ---------------- ---------- -------------- -------------- --------------
    1 O                    8.0000    -0.17255800    -0.14990193     0.00000000
    2 H                    1.0000    -0.17255800     1.99771733     0.00000000
    3 H                    1.0000     1.55302200    -0.79850193     0.00000000

 Vector    1  Occ=1.999989D+00  E=-2.055616D+01  Symmetry=a

 Vector    2  Occ=1.998615D+00  E=-1.311966D+00  Symmetry=a

 Vector    3  Occ=1.980957D+00  E=-6.984896D-01  Symmetry=a

 Vector    4  Occ=1.975615D+00  E=-5.678511D-01  Symmetry=a

 Vector    5  Occ=1.964251D+00  E=-5.194730D-01  Symmetry=a

 Vector    6  Occ=3.689694D-02  E=-3.320847D-02  Symmetry=a

 Vector    7  Occ=2.511365D-02  E=-2.580549D-02  Symmetry=a

 Vector    8  Occ=1.856224D-02  E=-1.581528D-02  Symmetry=a

 Vector    9  Occ=0.000000D+00  E= 3.078030D-01  Symmetry=a

 Vector   10  Occ=0.000000D+00  E= 3.355719D-01  Symmetry=a

 Vector   11  Occ=0.000000D+00  E= 6.107630D-01  Symmetry=a

 Vector   12  Occ=0.000000D+00  E= 6.902809D-01  Symmetry=a

 Vector   13  Occ=0.000000D+00  E= 8.182313D-01  Symmetry=a

 Vector   14  Occ=0.000000D+00  E= 8.267949D-01  Symmetry=a

 Vector   15  Occ=0.000000D+00  E= 9.715579D-01  Symmetry=a

 Vector   16  Occ=0.000000D+00  E= 1.118793D+00  Symmetry=a

 Vector   17  Occ=0.000000D+00  E= 1.187556D+00  Symmetry=a

 Vector   18  Occ=0.000000D+00  E= 1.256953D+00  Symmetry=a

         Total SCF energy =    -76.025049122595

 Vector    2  Occ=2.000000D+00  E=-1.311966D+00

 Vector    3  Occ=2.000000D+00  E=-6.984896D-01

 Vector    4  Occ=2.000000D+00  E=-5.678511D-01

 Vector    5  Occ=2.000000D+00  E=-5.194730D-01

 Vector    6  Occ=0.000000D+00  E=-3.320847D-02

 Vector    7  Occ=0.000000D+00  E=-2.580549D-02

 Vector    8  Occ=0.000000D+00  E=-1.581528D-02

 Vector    9  Occ=0.000000D+00  E= 3.078030D-01

 Vector   10  Occ=0.000000D+00  E= 3.355719D-01

 Vector   11  Occ=0.000000D+00  E= 6.107630D-01

 Vector   12  Occ=0.000000D+00  E= 6.902809D-01

 Vector   13  Occ=0.000000D+00  E= 8.182313D-01

 Vector   14  Occ=0.000000D+00  E= 8.267949D-01

 Vector   15  Occ=0.000000D+00  E= 9.715579D-01

       Multipole analysis of the density wrt the origin
       ------------------------------------------------

     L   x y z        total         open         nuclear
     -   - - -        -----         ----         -------
     0   0 0 0     -0.000000      0.000000     10.000000

     1   1 0 0      0.574109      0.000000     -0.000000
     1   0 1 0      0.447749      0.000000     -0.000000
     1   0 0 1      0.000001      0.000000      0.000000

     2   2 0 0     -4.225692      0.000000      2.679864
     2   1 1 0     -0.843823      0.000000     -1.377879
     2   1 0 1      0.000001      0.000000      0.000000
     2   0 2 0     -3.245878      0.000000      4.808245
     2   0 1 1      0.000000      0.000000      0.000000

 CCSD total energy / hartree       =       -76.127215095223875
 Total times  cpu:      133.5s     wall:      188.3s
