============================== echo of input deck ==============================
 echo
 start H2O
 title "H2O"

 memory total 24 gb

 geometry units bohr
 symmetry c1
        O  0.00000000  0.00000000  0.00000000
        H  0.00000000  2.2674435  0.00000000
        H  1.72558000 -0.64860000  0.00000000
 end

 basis spherical
   * library cc-pVTZ
 end

 mcscf
   active  8
   actelec 10
   multiplicity 1
   maxiter 40
   vectors input h2o.mos
   vectors output h2o.mos
 end

 task mcscf

 scf
   vectors input h2o.mos
   vectors output h2o-trash.mos
   noscf
 end

 tce
   2eorb
   2emet 13
   ccsd
 end

 set tce:print_integrals T
 set tce:qorb 8
 set tce:qela 5
 set tce:qelb 5

# set tce:qducc T
# set tce:nactv 3
# set tce:nonhf T
# set tce:ducc_model 3

 set tce:printtol 0.02

 task tce
================================================================================

 Output coordinates in a.u. (scale by  1.000000000 to convert to a.u.)

  No.       Tag          Charge          X              Y              Z
 ---- ---------------- ---------- -------------- -------------- --------------
    1 O                    8.0000    -0.17255800    -0.16188435     0.00000000
    2 H                    1.0000    -0.17255800     2.10555915     0.00000000
    3 H                    1.0000     1.55302200    -0.81048435     0.00000000

 Vector    1  Occ=1.999990D+00  E=-2.056039D+01  Symmetry=a

 Vector    2  Occ=1.998482D+00  E=-1.304438D+00  Symmetry=a

 Vector    3  Occ=1.980616D+00  E=-6.868148D-01  Symmetry=a

 Vector    4  Occ=1.975183D+00  E=-5.613521D-01  Symmetry=a

 Vector    5  Occ=1.957155D+00  E=-5.187095D-01  Symmetry=a

 Vector    6  Occ=4.417478D-02  E=-3.671167D-02  Symmetry=a

 Vector    7  Occ=2.555455D-02  E=-2.589761D-02  Symmetry=a

 Vector    8  Occ=1.884483D-02  E=-1.566591D-02  Symmetry=a

 Vector    9  Occ=0.000000D+00  E= 3.111975D-01  Symmetry=a

 Vector   10  Occ=0.000000D+00  E= 3.361071D-01  Symmetry=a

 Vector   11  Occ=0.000000D+00  E= 6.093983D-01  Symmetry=a

 Vector   12  Occ=0.000000D+00  E= 7.057989D-01  Symmetry=a

 Vector   13  Occ=0.000000D+00  E= 8.203086D-01  Symmetry=a

 Vector   14  Occ=0.000000D+00  E= 8.229746D-01  Symmetry=a

 Vector   15  Occ=0.000000D+00  E= 9.701753D-01  Symmetry=a

 Vector   16  Occ=0.000000D+00  E= 1.101445D+00  Symmetry=a

 Vector   17  Occ=0.000000D+00  E= 1.175754D+00  Symmetry=a

 Vector   18  Occ=0.000000D+00  E= 1.247179D+00  Symmetry=a

         Total SCF energy =    -76.008828217673

 Vector    2  Occ=2.000000D+00  E=-1.304438D+00

 Vector    3  Occ=2.000000D+00  E=-6.868148D-01

 Vector    4  Occ=2.000000D+00  E=-5.613521D-01

 Vector    5  Occ=2.000000D+00  E=-5.187095D-01

 Vector    6  Occ=0.000000D+00  E=-3.671167D-02

 Vector    7  Occ=0.000000D+00  E=-2.589761D-02

 Vector    8  Occ=0.000000D+00  E=-1.566591D-02

 Vector    9  Occ=0.000000D+00  E= 3.111975D-01

 Vector   10  Occ=0.000000D+00  E= 3.361071D-01

 Vector   11  Occ=0.000000D+00  E= 6.093983D-01

 Vector   12  Occ=0.000000D+00  E= 7.057989D-01

 Vector   13  Occ=0.000000D+00  E= 8.203086D-01

 Vector   14  Occ=0.000000D+00  E= 8.229746D-01

 Vector   15  Occ=0.000000D+00  E= 9.701753D-01

       Multipole analysis of the density wrt the origin
       ------------------------------------------------

     L   x y z        total         open         nuclear
     -   - - -        -----         ----         -------
     0   0 0 0     -0.000000      0.000000     10.000000

     1   1 0 0      0.569468      0.000000     -0.000000
     1   0 1 0      0.455683      0.000000     -0.000000
     1   0 0 1      0.000000      0.000000      0.000000

     2   2 0 0     -4.267645      0.000000      2.679864
     2   1 1 0     -0.852135      0.000000     -1.398556
     2   1 0 1     -0.000000      0.000000      0.000000
     2   0 2 0     -3.150222      0.000000      5.299917
     2   0 1 1     -0.000000      0.000000      0.000000

 CCSD total energy / hartree       =       -76.114310395986919
 Total times  cpu:      126.1s     wall:      179.3s
