============================== echo of input deck ==============================
 echo
 start H2O
 title "H2O"

 memory total 24 gb

 geometry units bohr
 symmetry c1
        O  0.00000000  0.00000000  0.00000000
        H  0.00000000  2.3780505  0.00000000
        H  1.72558000 -0.64860000  0.00000000
 end

 basis spherical
   * library cc-pVTZ
 end

 mcscf
   active  8
   actelec 10
   multiplicity 1
   maxiter 40
   vectors input h2o.mos
   vectors output h2o.mos
 end

 task mcscf

 scf
   vectors input h2o.mos
   vectors output h2o-trash.mos
   noscf
 end

 tce
   2eorb
   2emet 13
   ccsd
 end

 set tce:print_integrals T
 set tce:qorb 8
 set tce:qela 5
 set tce:qelb 5

# set tce:qducc T
# set tce:nactv 3
# set tce:nonhf T
# set tce:ducc_model 3

 set tce:printtol 0.02

 task tce
================================================================================

 Output coordinates in a.u. (scale by  1.000000000 to convert to a.u.)

  No.       Tag          Charge          X              Y              Z
 ---- ---------------- ---------- -------------- -------------- --------------
    1 O                    8.0000    -0.17255800    -0.17294505     0.00000000
    2 H                    1.0000    -0.17255800     2.20510545     0.00000000
    3 H                    1.0000     1.55302200    -0.82154505     0.00000000

 Vector    1  Occ=1.999990D+00  E=-2.056426D+01  Symmetry=a

 Vector    2  Occ=1.998360D+00  E=-1.299238D+00  Symmetry=a

 Vector    3  Occ=1.980396D+00  E=-6.779205D-01  Symmetry=a

 Vector    4  Occ=1.974822D+00  E=-5.546873D-01  Symmetry=a

 Vector    5  Occ=1.949023D+00  E=-5.185765D-01  Symmetry=a

 Vector    6  Occ=5.247122D-02  E=-4.038331D-02  Symmetry=a

 Vector    7  Occ=2.592384D-02  E=-2.597510D-02  Symmetry=a

 Vector    8  Occ=1.901379D-02  E=-1.549639D-02  Symmetry=a

 Vector    9  Occ=0.000000D+00  E= 3.137167D-01  Symmetry=a

 Vector   10  Occ=0.000000D+00  E= 3.371362D-01  Symmetry=a

 Vector   11  Occ=0.000000D+00  E= 6.082004D-01  Symmetry=a

 Vector   12  Occ=0.000000D+00  E= 7.201560D-01  Symmetry=a

 Vector   13  Occ=0.000000D+00  E= 8.143856D-01  Symmetry=a

 Vector   14  Occ=0.000000D+00  E= 8.281044D-01  Symmetry=a

 Vector   15  Occ=0.000000D+00  E= 9.685172D-01  Symmetry=a

 Vector   16  Occ=0.000000D+00  E= 1.085962D+00  Symmetry=a

 Vector   17  Occ=0.000000D+00  E= 1.148594D+00  Symmetry=a

 Vector   18  Occ=0.000000D+00  E= 1.255937D+00  Symmetry=a

         Total SCF energy =    -75.992822801450

 Vector    2  Occ=2.000000D+00  E=-1.299238D+00

 Vector    3  Occ=2.000000D+00  E=-6.779205D-01

 Vector    4  Occ=2.000000D+00  E=-5.546873D-01

 Vector    5  Occ=2.000000D+00  E=-5.185765D-01

 Vector    6  Occ=0.000000D+00  E=-4.038331D-02

 Vector    7  Occ=0.000000D+00  E=-2.597510D-02

 Vector    8  Occ=0.000000D+00  E=-1.549639D-02

 Vector    9  Occ=0.000000D+00  E= 3.137167D-01

 Vector   10  Occ=0.000000D+00  E= 3.371362D-01

 Vector   11  Occ=0.000000D+00  E= 6.082004D-01

 Vector   12  Occ=0.000000D+00  E= 7.201560D-01

 Vector   13  Occ=0.000000D+00  E= 8.143856D-01

 Vector   14  Occ=0.000000D+00  E= 8.281044D-01

 Vector   15  Occ=0.000000D+00  E= 9.685172D-01

       Multipole analysis of the density wrt the origin
       ------------------------------------------------

     L   x y z        total         open         nuclear
     -   - - -        -----         ----         -------
     0   0 0 0      0.000000      0.000000     10.000000

     1   1 0 0      0.565847      0.000000     -0.000000
     1   0 1 0      0.457870      0.000000      0.000000
     1   0 0 1      0.000000      0.000000      0.000000

     2   2 0 0     -4.303465      0.000000      2.679864
     2   1 1 0     -0.858090      0.000000     -1.417642
     2   1 0 1     -0.000000      0.000000      0.000000
     2   0 2 0     -3.067817      0.000000      5.776706
     2   0 1 1     -0.000000      0.000000      0.000000

 CCSD total energy / hartree       =       -76.101534014356574
 Total times  cpu:      129.8s     wall:      181.2s
