============================== echo of input deck ==============================
 echo
 start HChain
 title "HChain"

 memory total 180 gb

 geometry units bohr
 symmetry c1
   H 0.0  0.0  0.0
   H 3.0  0.0  0.0
   H 6.0  0.0  0.0
   H 9.0  0.0  0.0
 end

 basis spherical
   * library cc-pVTZ
 end

 tce
   2eorb
   2emet 13
   ccsd
 end

 set tce:print_integrals T
 set tce:qorb 4
 set tce:qela 2
 set tce:qelb 2

# set tce:qducc T
# set tce:nactv 2
# set tce:nonhf F
# set tce:ducc_model 6

 set tce:printtol 0.02

 task tce
================================================================================

 Output coordinates in a.u. (scale by  1.000000000 to convert to a.u.)

  No.       Tag          Charge          X              Y              Z
 ---- ---------------- ---------- -------------- -------------- --------------
    1 H                    1.0000    -4.50000000     0.00000000     0.00000000
    2 H                    1.0000    -1.50000000     0.00000000     0.00000000
    3 H                    1.0000     1.50000000     0.00000000     0.00000000
    4 H                    1.0000     4.50000000     0.00000000     0.00000000

         Total SCF energy =     -1.978295432860

 Vector    1  Occ=2.000000D+00  E=-4.890649D-01

 Vector    2  Occ=2.000000D+00  E=-3.898184D-01

 Vector    3  Occ=0.000000D+00  E=-4.262206D-02

 Vector    4  Occ=0.000000D+00  E= 1.189297D-01

 Vector    5  Occ=0.000000D+00  E= 3.645086D-01

 Vector    6  Occ=0.000000D+00  E= 3.966999D-01

 Vector    7  Occ=0.000000D+00  E= 4.482279D-01

 Vector    8  Occ=0.000000D+00  E= 5.381873D-01

 Vector    9  Occ=0.000000D+00  E= 6.125625D-01

 Vector   10  Occ=0.000000D+00  E= 6.125625D-01

 Vector   11  Occ=0.000000D+00  E= 7.016205D-01

 Vector   12  Occ=0.000000D+00  E= 7.016205D-01

       Multipole analysis of the density wrt the origin
       ------------------------------------------------

     L   x y z        total         open         nuclear
     -   - - -        -----         ----         -------
     0   0 0 0     -0.000000      0.000000      4.000000

     1   1 0 0      0.000000      0.000000      0.000000
     1   0 1 0     -0.000000      0.000000      0.000000
     1   0 0 1      0.000000      0.000000      0.000000

     2   2 0 0     -1.324670      0.000000     45.000000
     2   1 1 0      0.000000      0.000000      0.000000
     2   1 0 1      0.000000      0.000000      0.000000
     2   0 2 0     -4.656437      0.000000      0.000000
     2   0 1 1      0.000000      0.000000      0.000000

 CCSD total energy / hartree       =        -2.049571346235473
 Total times  cpu:        4.0s     wall:        4.2s
