============================== echo of input deck ==============================
 echo
 start HChain
 title "HChain"

 memory total 180 gb

 geometry units bohr
 symmetry c1
   H 0.0  0.0  0.0
   H 2.0  0.0  0.0
   H 4.0  0.0  0.0
   H 6.0  0.0  0.0
   H 8.0  0.0  0.0
   H 10.0  0.0  0.0
 end

 basis spherical
   * library cc-pVTZ
 end

 tce
   2eorb
   2emet 13
   ccsd
 end

# set tce:print_integrals T
# set tce:qorb 6
# set tce:qela 3
# set tce:qelb 3

 set tce:qducc T
 set tce:nactv 3
 set tce:nonhf F
 set tce:ducc_model 6

 set tce:printtol 0.02

 task tce
================================================================================

 Output coordinates in a.u. (scale by  1.000000000 to convert to a.u.)

  No.       Tag          Charge          X              Y              Z
 ---- ---------------- ---------- -------------- -------------- --------------
    1 H                    1.0000    -5.00000000     0.00000000     0.00000000
    2 H                    1.0000    -3.00000000     0.00000000     0.00000000
    3 H                    1.0000    -1.00000000     0.00000000     0.00000000
    4 H                    1.0000     1.00000000     0.00000000     0.00000000
    5 H                    1.0000     3.00000000     0.00000000     0.00000000
    6 H                    1.0000     5.00000000     0.00000000     0.00000000

         Total SCF energy =     -3.224940815717

 Vector    1  Occ=2.000000D+00  E=-6.727959D-01

 Vector    2  Occ=2.000000D+00  E=-5.600057D-01

 Vector    3  Occ=2.000000D+00  E=-3.897222D-01

 Vector    4  Occ=0.000000D+00  E= 3.581450D-02

 Vector    5  Occ=0.000000D+00  E= 2.006803D-01

 Vector    6  Occ=0.000000D+00  E= 3.043538D-01

 Vector    7  Occ=0.000000D+00  E= 3.283762D-01

 Vector    8  Occ=0.000000D+00  E= 4.156897D-01

 Vector    9  Occ=0.000000D+00  E= 4.789189D-01

 Vector   10  Occ=0.000000D+00  E= 5.611207D-01

 Vector   11  Occ=0.000000D+00  E= 5.611207D-01

 Vector   12  Occ=0.000000D+00  E= 6.145345D-01

 Vector   13  Occ=0.000000D+00  E= 6.378723D-01

       Multipole analysis of the density wrt the origin
       ------------------------------------------------

     L   x y z        total         open         nuclear
     -   - - -        -----         ----         -------
     0   0 0 0      0.000000      0.000000      6.000000

     1   1 0 0     -0.000000      0.000000      0.000000
     1   0 1 0     -0.000000      0.000000      0.000000
     1   0 0 1      0.000000      0.000000      0.000000

     2   2 0 0     -4.371547      0.000000     70.000000
     2   1 1 0      0.000000      0.000000      0.000000
     2   1 0 1     -0.000000      0.000000      0.000000
     2   0 2 0     -5.308081      0.000000      0.000000
     2   0 1 1      0.000000      0.000000      0.000000

 CCSD total energy / hartree       =        -3.374914366816993
 Total times  cpu:     2549.7s     wall:     4274.6s
