============================== echo of input deck ==============================
 echo
 start HChain
 title "HChain"

 memory total 180 gb

 geometry units bohr
 symmetry c1
   H 0.0  0.0  0.0
   H 3.0  0.0  0.0
   H 6.0  0.0  0.0
   H 9.0  0.0  0.0
   H 12.0  0.0  0.0
   H 15.0  0.0  0.0
   H 18.0  0.0  0.0
   H 21.0  0.0  0.0
 end

 basis spherical
   * library cc-pVTZ
 end

 tce
   2eorb
   2emet 13
   ccsd
 end

# set tce:print_integrals T
# set tce:qorb 8
# set tce:qela 4
# set tce:qelb 4

 set tce:qducc T
 set tce:nactv 4
 set tce:nonhf F
 set tce:ducc_model 6

 set tce:printtol 0.02

 task tce
================================================================================

 Output coordinates in a.u. (scale by  1.000000000 to convert to a.u.)

  No.       Tag          Charge          X              Y              Z
 ---- ---------------- ---------- -------------- -------------- --------------
    1 H                    1.0000   -10.50000000     0.00000000     0.00000000
    2 H                    1.0000    -7.50000000     0.00000000     0.00000000
    3 H                    1.0000    -4.50000000     0.00000000     0.00000000
    4 H                    1.0000    -1.50000000     0.00000000     0.00000000
    5 H                    1.0000     1.50000000     0.00000000     0.00000000
    6 H                    1.0000     4.50000000     0.00000000     0.00000000
    7 H                    1.0000     7.50000000     0.00000000     0.00000000
    8 H                    1.0000    10.50000000     0.00000000     0.00000000

         Total SCF energy =     -3.960999915461

 Vector    1  Occ=2.000000D+00  E=-5.177119D-01

 Vector    2  Occ=2.000000D+00  E=-4.827923D-01

 Vector    3  Occ=2.000000D+00  E=-4.266137D-01

 Vector    4  Occ=2.000000D+00  E=-3.557690D-01

 Vector    5  Occ=0.000000D+00  E=-9.193870D-02

 Vector    6  Occ=0.000000D+00  E= 2.115043D-03

 Vector    7  Occ=0.000000D+00  E= 1.014155D-01

 Vector    8  Occ=0.000000D+00  E= 2.002958D-01

 Vector    9  Occ=0.000000D+00  E= 3.565851D-01

 Vector   10  Occ=0.000000D+00  E= 3.705291D-01

 Vector   11  Occ=0.000000D+00  E= 3.899820D-01

 Vector   12  Occ=0.000000D+00  E= 4.189853D-01

 Vector   13  Occ=0.000000D+00  E= 4.610140D-01

 Vector   14  Occ=0.000000D+00  E= 5.185402D-01

       Multipole analysis of the density wrt the origin
       ------------------------------------------------

     L   x y z        total         open         nuclear
     -   - - -        -----         ----         -------
     0   0 0 0     -0.000000      0.000000      8.000000

     1   1 0 0      0.000000      0.000000      0.000000
     1   0 1 0      0.000000      0.000000      0.000000
     1   0 0 1      0.000000      0.000000      0.000000

     2   2 0 0     -1.025802      0.000000    378.000000
     2   1 1 0      0.000000      0.000000      0.000000
     2   1 0 1      0.000000      0.000000      0.000000
     2   0 2 0     -9.196588      0.000000      0.000000
     2   0 1 1     -0.000000      0.000000      0.000000

 CCSD total energy / hartree       =        -4.229507075706125
 Total times  cpu:    15869.6s     wall:    18827.1s
