============================== echo of input deck ==============================
 echo
 start H2O
 title "H2O"

 memory total 24 gb

 geometry units bohr
 symmetry c1
        O  0.00000000  0.00000000  0.00000000
        H  0.00000000  1.732843  0.00000000
        H  1.72558000 -0.64860000  0.00000000
 end

 basis spherical
   * library cc-pVTZ
 end

 scf
   vectors input h2o.mos
   vectors output h2o.mos
 end

 tce
   2eorb
   2emet 13
   ccsd
 end

# set tce:print_integrals T
# set tce:qorb
# set tce:qela
# set tce:qelb

# set tce:qducc T
# set tce:nactv
# set tce:nonhf F
# set tce:ducc_model 3

 set tce:printtol 0.02

 task tce

 tce
   2eorb
   2emet 13
   ccsd
   freeze virtual 50
 end

 set tce:printtol 0.02

 task tce

================================================================================

 Output coordinates in a.u. (scale by  1.000000000 to convert to a.u.)

  No.       Tag          Charge          X              Y              Z
 ---- ---------------- ---------- -------------- -------------- --------------
    1 O                    8.0000    -0.17255800    -0.10842430     0.00000000
    2 H                    1.0000    -0.17255800     1.62441870     0.00000000
    3 H                    1.0000     1.55302200    -0.75702430     0.00000000

         Total SCF energy =    -76.055235963019

 Vector    2  Occ=2.000000D+00  E=-1.347687D+00

 Vector    3  Occ=2.000000D+00  E=-7.274350D-01

 Vector    4  Occ=2.000000D+00  E=-5.675199D-01

 Vector    5  Occ=2.000000D+00  E=-5.034236D-01

 Vector    6  Occ=0.000000D+00  E= 1.439862D-01

 Vector    7  Occ=0.000000D+00  E= 2.036711D-01

 Vector    8  Occ=0.000000D+00  E= 5.532664D-01

 Vector    9  Occ=0.000000D+00  E= 5.914962D-01

 Vector   10  Occ=0.000000D+00  E= 6.726986D-01

 Vector   11  Occ=0.000000D+00  E= 7.868657D-01

 Vector   12  Occ=0.000000D+00  E= 8.029022D-01

 Vector   13  Occ=0.000000D+00  E= 8.365132D-01

 Vector   14  Occ=0.000000D+00  E= 8.520404D-01

 Vector   15  Occ=0.000000D+00  E= 9.831049D-01

       Multipole analysis of the density wrt the origin
       ------------------------------------------------

     L   x y z        total         open         nuclear
     -   - - -        -----         ----         -------
     0   0 0 0     -0.000000      0.000000     10.000000

     1   1 0 0      0.632777      0.000000     -0.000000
     1   0 1 0      0.410910      0.000000      0.000000
     1   0 0 1     -0.000000      0.000000      0.000000

     2   2 0 0     -4.013468      0.000000      2.679864
     2   1 1 0     -0.821843      0.000000     -1.306306
     2   1 0 1      0.000000      0.000000      0.000000
     2   0 2 0     -3.522472      0.000000      3.305869
     2   0 1 1     -0.000000      0.000000      0.000000

 CCSD total energy / hartree       =       -76.335059907469116
         Total SCF energy =    -76.055235963019
 CCSD total energy / hartree       =       -76.063523900529134
 Total times  cpu:        5.3s     wall:        5.5s
