============================== echo of input deck ==============================
 echo
 start H2O
 title "H2O"

 memory total 24 gb

 geometry units bohr
 symmetry c1
        O  0.00000000  0.00000000  0.00000000
        H  0.00000000  1.806581  0.00000000
        H  1.72558000 -0.64860000  0.00000000
 end

 basis spherical
   * library cc-pVTZ
 end

 scf
   vectors input h2o.mos
   vectors output h2o.mos
 end

 tce
   2eorb
   2emet 13
   ccsd
 end

# set tce:print_integrals T
# set tce:qorb
# set tce:qela
# set tce:qelb

# set tce:qducc T
# set tce:nactv
# set tce:nonhf F
# set tce:ducc_model 3

 set tce:printtol 0.02

 task tce

 tce
   2eorb
   2emet 13
   ccsd
   freeze virtual 50
 end

 set tce:printtol 0.02

 task tce

================================================================================

 Output coordinates in a.u. (scale by  1.000000000 to convert to a.u.)

  No.       Tag          Charge          X              Y              Z
 ---- ---------------- ---------- -------------- -------------- --------------
    1 O                    8.0000    -0.17255800    -0.11579810     0.00000000
    2 H                    1.0000    -0.17255800     1.69078290     0.00000000
    3 H                    1.0000     1.55302200    -0.76439810     0.00000000

         Total SCF energy =    -76.055500939220

 Vector    2  Occ=2.000000D+00  E=-1.336926D+00

 Vector    3  Occ=2.000000D+00  E=-7.160754D-01

 Vector    4  Occ=2.000000D+00  E=-5.641183D-01

 Vector    5  Occ=2.000000D+00  E=-5.016690D-01

 Vector    6  Occ=0.000000D+00  E= 1.421591D-01

 Vector    7  Occ=0.000000D+00  E= 2.020503D-01

 Vector    8  Occ=0.000000D+00  E= 5.509685D-01

 Vector    9  Occ=0.000000D+00  E= 5.755023D-01

 Vector   10  Occ=0.000000D+00  E= 6.758663D-01

 Vector   11  Occ=0.000000D+00  E= 7.883759D-01

 Vector   12  Occ=0.000000D+00  E= 8.012117D-01

 Vector   13  Occ=0.000000D+00  E= 8.337581D-01

 Vector   14  Occ=0.000000D+00  E= 8.469972D-01

 Vector   15  Occ=0.000000D+00  E= 9.800170D-01

       Multipole analysis of the density wrt the origin
       ------------------------------------------------

     L   x y z        total         open         nuclear
     -   - - -        -----         ----         -------
     0   0 0 0     -0.000000      0.000000     10.000000

     1   1 0 0      0.628792      0.000000     -0.000000
     1   0 1 0      0.426471      0.000000      0.000000
     1   0 0 1     -0.000000      0.000000      0.000000

     2   2 0 0     -4.045049      0.000000      2.679864
     2   1 1 0     -0.831001      0.000000     -1.319030
     2   1 0 1      0.000000      0.000000      0.000000
     2   0 2 0     -3.463286      0.000000      3.550325
     2   0 1 1     -0.000000      0.000000      0.000000

 CCSD total energy / hartree       =       -76.336445700996720
         Total SCF energy =    -76.055500939220
 CCSD total energy / hartree       =       -76.063690184675522
 Total times  cpu:        5.3s     wall:        5.5s
