============================== echo of input deck ==============================
 echo
 start H2O
 title "H2O"

 memory total 24 gb

 geometry units bohr
 symmetry c1
        O  0.00000000  0.00000000  0.00000000
        H  0.00000000  1.8250155  0.00000000
        H  1.72558000 -0.64860000  0.00000000
 end

 basis spherical
   * library cc-pVTZ
 end

 scf
   vectors input h2o.mos
   vectors output h2o.mos
 end

 tce
   2eorb
   2emet 13
   ccsd
 end

# set tce:print_integrals T
# set tce:qorb
# set tce:qela
# set tce:qelb

# set tce:qducc T
# set tce:nactv
# set tce:nonhf F
# set tce:ducc_model 3

 set tce:printtol 0.02

 task tce

 tce
   2eorb
   2emet 13
   ccsd
   freeze virtual 50
 end

 set tce:printtol 0.02

 task tce

================================================================================

 Output coordinates in a.u. (scale by  1.000000000 to convert to a.u.)

  No.       Tag          Charge          X              Y              Z
 ---- ---------------- ---------- -------------- -------------- --------------
    1 O                    8.0000    -0.17255800    -0.11764155     0.00000000
    2 H                    1.0000    -0.17255800     1.70737395     0.00000000
    3 H                    1.0000     1.55302200    -0.76624155     0.00000000

         Total SCF energy =    -76.055053670403

 Vector    2  Occ=2.000000D+00  E=-1.334439D+00

 Vector    3  Occ=2.000000D+00  E=-7.133080D-01

 Vector    4  Occ=2.000000D+00  E=-5.632417D-01

 Vector    5  Occ=2.000000D+00  E=-5.012588D-01

 Vector    6  Occ=0.000000D+00  E= 1.416292D-01

 Vector    7  Occ=0.000000D+00  E= 2.016223D-01

 Vector    8  Occ=0.000000D+00  E= 5.497190D-01

 Vector    9  Occ=0.000000D+00  E= 5.719845D-01

 Vector   10  Occ=0.000000D+00  E= 6.768781D-01

 Vector   11  Occ=0.000000D+00  E= 7.884655D-01

 Vector   12  Occ=0.000000D+00  E= 8.010421D-01

 Vector   13  Occ=0.000000D+00  E= 8.331582D-01

 Vector   14  Occ=0.000000D+00  E= 8.458824D-01

 Vector   15  Occ=0.000000D+00  E= 9.793857D-01

       Multipole analysis of the density wrt the origin
       ------------------------------------------------

     L   x y z        total         open         nuclear
     -   - - -        -----         ----         -------
     0   0 0 0     -0.000000      0.000000     10.000000

     1   1 0 0      0.627840      0.000000     -0.000000
     1   0 1 0      0.430296      0.000000      0.000000
     1   0 0 1     -0.000000      0.000000      0.000000

     2   2 0 0     -4.052823      0.000000      2.679864
     2   1 1 0     -0.833283      0.000000     -1.322211
     2   1 0 1      0.000000      0.000000      0.000000
     2   0 2 0     -3.447953      0.000000      3.612968
     2   0 1 1     -0.000000      0.000000      0.000000

 CCSD total energy / hartree       =       -76.336285043490847
         Total SCF energy =    -76.055053670403
 CCSD total energy / hartree       =       -76.063277313909992
 Total times  cpu:        5.3s     wall:        5.5s
