============================== echo of input deck ==============================
 echo
 start H2O
 title "H2O"

 memory total 24 gb

 geometry units bohr
 symmetry c1
        O  0.00000000  0.00000000  0.00000000
        H  0.00000000  1.84345  0.00000000
        H  1.72558000 -0.64860000  0.00000000
 end

 basis spherical
   * library cc-pVTZ
 end

 scf
   vectors input h2o.mos
   vectors output h2o.mos
 end

 tce
   2eorb
   2emet 13
   ccsd
 end

# set tce:print_integrals T
# set tce:qorb
# set tce:qela
# set tce:qelb

# set tce:qducc T
# set tce:nactv
# set tce:nonhf F
# set tce:ducc_model 3

 set tce:printtol 0.02

 task tce

 tce
   2eorb
   2emet 13
   ccsd
   freeze virtual 50
 end

 set tce:printtol 0.02

 task tce

================================================================================

 Output coordinates in a.u. (scale by  1.000000000 to convert to a.u.)

  No.       Tag          Charge          X              Y              Z
 ---- ---------------- ---------- -------------- -------------- --------------
    1 O                    8.0000    -0.17255800    -0.11948500     0.00000000
    2 H                    1.0000    -0.17255800     1.72396500     0.00000000
    3 H                    1.0000     1.55302200    -0.76808500     0.00000000

         Total SCF energy =    -76.054427141347

 Vector    2  Occ=2.000000D+00  E=-1.332031D+00

 Vector    3  Occ=2.000000D+00  E=-7.105756D-01

 Vector    4  Occ=2.000000D+00  E=-5.623568D-01

 Vector    5  Occ=2.000000D+00  E=-5.008598D-01

 Vector    6  Occ=0.000000D+00  E= 1.410677D-01

 Vector    7  Occ=0.000000D+00  E= 2.011859D-01

 Vector    8  Occ=0.000000D+00  E= 5.479885D-01

 Vector    9  Occ=0.000000D+00  E= 5.689051D-01

 Vector   10  Occ=0.000000D+00  E= 6.779488D-01

 Vector   11  Occ=0.000000D+00  E= 7.884331D-01

 Vector   12  Occ=0.000000D+00  E= 8.009684D-01

 Vector   13  Occ=0.000000D+00  E= 8.325933D-01

 Vector   14  Occ=0.000000D+00  E= 8.448418D-01

 Vector   15  Occ=0.000000D+00  E= 9.788044D-01

       Multipole analysis of the density wrt the origin
       ------------------------------------------------

     L   x y z        total         open         nuclear
     -   - - -        -----         ----         -------
     0   0 0 0     -0.000000      0.000000     10.000000

     1   1 0 0      0.626913      0.000000     -0.000000
     1   0 1 0      0.434096      0.000000      0.000000
     1   0 0 1     -0.000000      0.000000      0.000000

     2   2 0 0     -4.060532      0.000000      2.679864
     2   1 1 0     -0.835570      0.000000     -1.325392
     2   1 0 1      0.000000      0.000000      0.000000
     2   0 2 0     -3.432395      0.000000      3.676223
     2   0 1 1     -0.000000      0.000000      0.000000

 CCSD total energy / hartree       =       -76.335947507742574
         Total SCF energy =    -76.054427141347
 CCSD total energy / hartree       =       -76.062816947971086
 Total times  cpu:        5.3s     wall:        5.6s
