============================== echo of input deck ==============================
 echo
 start H2O
 title "H2O"

 memory total 24 gb

 geometry units bohr
 symmetry c1
        O  0.00000000  0.00000000  0.00000000
        H  0.00000000  1.9356225  0.00000000
        H  1.72558000 -0.64860000  0.00000000
 end

 basis spherical
   * library cc-pVTZ
 end

 scf
   vectors input h2o.mos
   vectors output h2o.mos
 end

 tce
   2eorb
   2emet 13
   ccsd
 end

# set tce:print_integrals T
# set tce:qorb
# set tce:qela
# set tce:qelb

# set tce:qducc T
# set tce:nactv
# set tce:nonhf F
# set tce:ducc_model 3

 set tce:printtol 0.02

 task tce

 tce
   2eorb
   2emet 13
   ccsd
   freeze virtual 50
 end

 set tce:printtol 0.02

 task tce

================================================================================

 Output coordinates in a.u. (scale by  1.000000000 to convert to a.u.)

  No.       Tag          Charge          X              Y              Z
 ---- ---------------- ---------- -------------- -------------- --------------
    1 O                    8.0000    -0.17255800    -0.12870225     0.00000000
    2 H                    1.0000    -0.17255800     1.80692025     0.00000000
    3 H                    1.0000     1.55302200    -0.77730225     0.00000000

         Total SCF energy =    -76.048992873960

 Vector    2  Occ=2.000000D+00  E=-1.321075D+00

 Vector    3  Occ=2.000000D+00  E=-6.974283D-01

 Vector    4  Occ=2.000000D+00  E=-5.577201D-01

 Vector    5  Occ=2.000000D+00  E=-4.990385D-01

 Vector    6  Occ=0.000000D+00  E= 1.377471D-01

 Vector    7  Occ=0.000000D+00  E= 1.989104D-01

 Vector    8  Occ=0.000000D+00  E= 5.315033D-01

 Vector    9  Occ=0.000000D+00  E= 5.611818D-01

 Vector   10  Occ=0.000000D+00  E= 6.837869D-01

 Vector   11  Occ=0.000000D+00  E= 7.863944D-01

 Vector   12  Occ=0.000000D+00  E= 8.019573D-01

 Vector   13  Occ=0.000000D+00  E= 8.303095D-01

 Vector   14  Occ=0.000000D+00  E= 8.409220D-01

 Vector   15  Occ=0.000000D+00  E= 9.765461D-01

       Multipole analysis of the density wrt the origin
       ------------------------------------------------

     L   x y z        total         open         nuclear
     -   - - -        -----         ----         -------
     0   0 0 0     -0.000000      0.000000     10.000000

     1   1 0 0      0.622481      0.000000     -0.000000
     1   0 1 0      0.452527      0.000000      0.000000
     1   0 0 1      0.000000      0.000000      0.000000

     2   2 0 0     -4.098454      0.000000      2.679864
     2   1 1 0     -0.846865      0.000000     -1.341297
     2   1 0 1      0.000000      0.000000      0.000000
     2   0 2 0     -3.351914      0.000000      4.001674
     2   0 1 1     -0.000000      0.000000      0.000000

 CCSD total energy / hartree       =       -76.331992473153136
         Total SCF energy =    -76.048992873960
 CCSD total energy / hartree       =       -76.060407242032525
 Total times  cpu:        5.2s     wall:        5.4s
