============================== echo of input deck ==============================
 echo
 start H2O
 title "H2O"

 memory total 24 gb

 geometry units bohr
 symmetry c1
        O  0.00000000  0.00000000  0.00000000
        H  0.00000000  2.21214  0.00000000
        H  1.72558000 -0.64860000  0.00000000
 end

 basis spherical
   * library cc-pVTZ
 end

 scf
   vectors input h2o.mos
   vectors output h2o.mos
 end

 tce
   2eorb
   2emet 13
   ccsd
 end

# set tce:print_integrals T
# set tce:qorb
# set tce:qela
# set tce:qelb

# set tce:qducc T
# set tce:nactv
# set tce:nonhf F
# set tce:ducc_model 3

 set tce:printtol 0.02

 task tce

 tce
   2eorb
   2emet 13
   ccsd
   freeze virtual 50
 end

 set tce:printtol 0.02

 task tce

================================================================================

 Output coordinates in a.u. (scale by  1.000000000 to convert to a.u.)

  No.       Tag          Charge          X              Y              Z
 ---- ---------------- ---------- -------------- -------------- --------------
    1 O                    8.0000    -0.17255800    -0.15635400     0.00000000
    2 H                    1.0000    -0.17255800     2.05578600     0.00000000
    3 H                    1.0000     1.55302200    -0.80495400     0.00000000

         Total SCF energy =    -76.018205023010

 Vector    2  Occ=2.000000D+00  E=-1.297406D+00

 Vector    3  Occ=2.000000D+00  E=-6.645742D-01

 Vector    4  Occ=2.000000D+00  E=-5.413515D-01

 Vector    5  Occ=2.000000D+00  E=-4.953016D-01

 Vector    6  Occ=0.000000D+00  E= 1.216906D-01

 Vector    7  Occ=0.000000D+00  E= 1.919213D-01

 Vector    8  Occ=0.000000D+00  E= 4.690395D-01

 Vector    9  Occ=0.000000D+00  E= 5.583972D-01

 Vector   10  Occ=0.000000D+00  E= 6.975259D-01

 Vector   11  Occ=0.000000D+00  E= 7.668329D-01

 Vector   12  Occ=0.000000D+00  E= 8.131393D-01

 Vector   13  Occ=0.000000D+00  E= 8.305709D-01

 Vector   14  Occ=0.000000D+00  E= 8.398535D-01

 Vector   15  Occ=0.000000D+00  E= 9.735120D-01

       Multipole analysis of the density wrt the origin
       ------------------------------------------------

     L   x y z        total         open         nuclear
     -   - - -        -----         ----         -------
     0   0 0 0     -0.000000      0.000000     10.000000

     1   1 0 0      0.611571      0.000000     -0.000000
     1   0 1 0      0.500498      0.000000      0.000000
     1   0 0 1      0.000000      0.000000      0.000000

     2   2 0 0     -4.205018      0.000000      2.679864
     2   1 1 0     -0.879181      0.000000     -1.389013
     2   1 0 1      0.000000      0.000000      0.000000
     2   0 2 0     -3.089062      0.000000      5.069780
     2   0 1 1     -0.000000      0.000000      0.000000

 CCSD total energy / hartree       =       -76.306002855849570
         Total SCF energy =    -76.018205023010
 CCSD total energy / hartree       =       -76.038618727816143
 Total times  cpu:        5.4s     wall:        5.7s
