============================== echo of input deck ==============================
 echo
 start H2O
 title "H2O"

 memory total 24 gb

 geometry units bohr
 symmetry c1
        O  0.00000000  0.00000000  0.00000000
        H  0.00000000  2.3043125  0.00000000
        H  1.72558000 -0.64860000  0.00000000
 end

 basis spherical
   * library cc-pVTZ
 end

 scf
   vectors input h2o.mos
   vectors output h2o.mos
 end

 tce
   2eorb
   2emet 13
   ccsd
 end

# set tce:print_integrals T
# set tce:qorb
# set tce:qela
# set tce:qelb

# set tce:qducc T
# set tce:nactv
# set tce:nonhf F
# set tce:ducc_model 3

 set tce:printtol 0.02

 task tce

 tce
   2eorb
   2emet 13
   ccsd
   freeze virtual 50
 end

 set tce:printtol 0.02

 task tce

================================================================================

 Output coordinates in a.u. (scale by  1.000000000 to convert to a.u.)

  No.       Tag          Charge          X              Y              Z
 ---- ---------------- ---------- -------------- -------------- --------------
    1 O                    8.0000    -0.17255800    -0.16557125     0.00000000
    2 H                    1.0000    -0.17255800     2.13874125     0.00000000
    3 H                    1.0000     1.55302200    -0.81417125     0.00000000

         Total SCF energy =    -76.005447776079

 Vector    2  Occ=2.000000D+00  E=-1.291963D+00

 Vector    3  Occ=2.000000D+00  E=-6.561358D-01

 Vector    4  Occ=2.000000D+00  E=-5.349342D-01

 Vector    5  Occ=2.000000D+00  E=-4.946111D-01

 Vector    6  Occ=0.000000D+00  E= 1.141673D-01

 Vector    7  Occ=0.000000D+00  E= 1.898156D-01

 Vector    8  Occ=0.000000D+00  E= 4.518651D-01

 Vector    9  Occ=0.000000D+00  E= 5.580826D-01

 Vector   10  Occ=0.000000D+00  E= 6.994430D-01

 Vector   11  Occ=0.000000D+00  E= 7.587052D-01

 Vector   12  Occ=0.000000D+00  E= 8.165577D-01

 Vector   13  Occ=0.000000D+00  E= 8.343842D-01

 Vector   14  Occ=0.000000D+00  E= 8.410348D-01

 Vector   15  Occ=0.000000D+00  E= 9.729301D-01

       Multipole analysis of the density wrt the origin
       ------------------------------------------------

     L   x y z        total         open         nuclear
     -   - - -        -----         ----         -------
     0   0 0 0      0.000000      0.000000     10.000000

     1   1 0 0      0.608664      0.000000     -0.000000
     1   0 1 0      0.513502      0.000000      0.000000
     1   0 0 1      0.000000      0.000000      0.000000

     2   2 0 0     -4.238194      0.000000      2.679864
     2   1 1 0     -0.889149      0.000000     -1.404918
     2   1 0 1      0.000000      0.000000      0.000000
     2   0 2 0     -2.997075      0.000000      5.456400
     2   0 1 1     -0.000000      0.000000      0.000000

 CCSD total energy / hartree       =       -76.294994159428256
         Total SCF energy =    -76.005447776079
 CCSD total energy / hartree       =       -76.028950455889529
 Total times  cpu:        5.4s     wall:        5.7s
