============================== echo of input deck ==============================
 echo
 start H2O
 title "H2O"

 memory total 24 gb

 geometry units bohr
 symmetry c1
        O  0.00000000  0.00000000  0.00000000
        H  0.00000000  2.765175  0.00000000
        H  1.72558000 -0.64860000  0.00000000
 end

 basis spherical
   * library cc-pVTZ
 end

 scf
   vectors input h2o.mos
   vectors output h2o.mos
 end

 tce
   2eorb
   2emet 13
   ccsd
 end

# set tce:print_integrals T
# set tce:qorb
# set tce:qela
# set tce:qelb

# set tce:qducc T
# set tce:nactv
# set tce:nonhf F
# set tce:ducc_model 3

 set tce:printtol 0.02

 task tce

 tce
   2eorb
   2emet 13
   ccsd
   freeze virtual 50
 end

 set tce:printtol 0.02

 task tce

================================================================================

 Output coordinates in a.u. (scale by  1.000000000 to convert to a.u.)

  No.       Tag          Charge          X              Y              Z
 ---- ---------------- ---------- -------------- -------------- --------------
    1 O                    8.0000    -0.17255800    -0.21165750     0.00000000
    2 H                    1.0000    -0.17255800     2.55351750     0.00000000
    3 H                    1.0000     1.55302200    -0.86025750     0.00000000

         Total SCF energy =    -75.938735865280

 Vector    2  Occ=2.000000D+00  E=-1.276887D+00

 Vector    3  Occ=2.000000D+00  E=-6.315720D-01

 Vector    4  Occ=2.000000D+00  E=-4.974268D-01

 Vector    5  Occ=2.000000D+00  E=-4.947390D-01

 Vector    6  Occ=0.000000D+00  E= 6.554193D-02

 Vector    7  Occ=0.000000D+00  E= 1.819586D-01

 Vector    8  Occ=0.000000D+00  E= 3.982293D-01

 Vector    9  Occ=0.000000D+00  E= 5.566816D-01

 Vector   10  Occ=0.000000D+00  E= 6.960903D-01

 Vector   11  Occ=0.000000D+00  E= 7.233592D-01

 Vector   12  Occ=0.000000D+00  E= 8.239363D-01

 Vector   13  Occ=0.000000D+00  E= 8.457447D-01

 Vector   14  Occ=0.000000D+00  E= 8.676374D-01

 Vector   15  Occ=0.000000D+00  E= 9.678059D-01

       Multipole analysis of the density wrt the origin
       ------------------------------------------------

     L   x y z        total         open         nuclear
     -   - - -        -----         ----         -------
     0   0 0 0     -0.000000      0.000000     10.000000

     1   1 0 0      0.598994      0.000000     -0.000000
     1   0 1 0      0.553282      0.000000     -0.000000
     1   0 0 1      0.000000      0.000000      0.000000

     2   2 0 0     -4.387303      0.000000      2.679864
     2   1 1 0     -0.930378      0.000000     -1.484443
     2   1 0 1      0.000000      0.000000      0.000000
     2   0 2 0     -2.538537      0.000000      7.618886
     2   0 1 1      0.000000      0.000000      0.000000

 CCSD total energy / hartree       =       -76.238669949770667
         Total SCF energy =    -75.938735865280
 CCSD total energy / hartree       =       -75.980373452472278
 Total times  cpu:        5.8s     wall:        6.0s
