============================== echo of input deck ==============================
 echo
 start H2O
 title "H2O"

 memory total 24 gb

 geometry units bohr
 symmetry c1
        O  0.00000000  0.00000000  0.00000000
        H  0.00000000  4.1477625  0.00000000
        H  1.72558000 -0.64860000  0.00000000
 end

 basis spherical
   * library cc-pVTZ
 end

 scf
   vectors input h2o.mos
   vectors output h2o.mos
 end

 tce
   2eorb
   2emet 13
   ccsd
 end

# set tce:print_integrals T
# set tce:qorb
# set tce:qela
# set tce:qelb

# set tce:qducc T
# set tce:nactv
# set tce:nonhf F
# set tce:ducc_model 3

 set tce:printtol 0.02

 task tce

 tce
   2eorb
   2emet 13
   ccsd
   freeze virtual 50
 end

 set tce:printtol 0.02

 task tce

================================================================================

 Output coordinates in a.u. (scale by  1.000000000 to convert to a.u.)

  No.       Tag          Charge          X              Y              Z
 ---- ---------------- ---------- -------------- -------------- --------------
    1 O                    8.0000    -0.17255800    -0.34991625     0.00000000
    2 H                    1.0000    -0.17255800     3.79784625     0.00000000
    3 H                    1.0000     1.55302200    -0.99851625     0.00000000

         Total SCF energy =    -75.789329422596

 Vector    2  Occ=2.000000D+00  E=-1.280004D+00

 Vector    3  Occ=2.000000D+00  E=-6.317714D-01

 Vector    4  Occ=2.000000D+00  E=-5.111763D-01

 Vector    5  Occ=2.000000D+00  E=-4.001750D-01

 Vector    6  Occ=0.000000D+00  E=-6.328748D-02

 Vector    7  Occ=0.000000D+00  E= 1.686362D-01

 Vector    8  Occ=0.000000D+00  E= 3.803543D-01

 Vector    9  Occ=0.000000D+00  E= 5.599773D-01

 Vector   10  Occ=0.000000D+00  E= 6.725128D-01

 Vector   11  Occ=0.000000D+00  E= 6.996261D-01

 Vector   12  Occ=0.000000D+00  E= 7.438956D-01

 Vector   13  Occ=0.000000D+00  E= 8.225886D-01

 Vector   14  Occ=0.000000D+00  E= 8.269397D-01

 Vector   15  Occ=0.000000D+00  E= 8.731149D-01

       Multipole analysis of the density wrt the origin
       ------------------------------------------------

     L   x y z        total         open         nuclear
     -   - - -        -----         ----         -------
     0   0 0 0     -0.000000      0.000000     10.000000

     1   1 0 0      0.606367      0.000000     -0.000000
     1   0 1 0      0.502369      0.000000      0.000000
     1   0 0 1      0.000000      0.000000      0.000000

     2   2 0 0     -4.680232      0.000000      2.679864
     2   1 1 0     -0.965511      0.000000     -1.723020
     2   1 0 1      0.000000      0.000000      0.000000
     2   0 2 0     -1.524259      0.000000     16.400202
     2   0 1 1      0.000000      0.000000      0.000000

 CCSD total energy / hartree       =       -76.141031895258635
         Total SCF energy =    -75.789329422596
 CCSD total energy / hartree       =       -75.908531889095187
 Total times  cpu:        6.5s     wall:        6.8s
