============================== echo of input deck ==============================
 echo
 start H2O
 title "H2O"

 memory total 24 gb

 geometry units bohr
 symmetry c1
        O  0.00000000  0.00000000  0.00000000
        H  0.00000000  1.732843  0.00000000
        H  1.72558000 -0.64860000  0.00000000
 end

 basis spherical
   * library cc-pVTZ
 end

 mcscf
   active  8
   actelec 10
   multiplicity 1
   maxiter 40
   vectors input h2o.mos
   vectors output h2o.mos
 end

 task mcscf

 scf
   vectors input h2o.mos
   vectors output h2o-trash.mos
   noscf
 end

 tce
   2eorb
   2emet 13
   ccsd
 end

# set tce:print_integrals T
# set tce:qorb 8
# set tce:qela 5
# set tce:qelb 5

 set tce:qducc T
 set tce:nactv 3
 set tce:nonhf T
 set tce:ducc_model 6

 set tce:printtol 0.02

 task tce
================================================================================

 Output coordinates in a.u. (scale by  1.000000000 to convert to a.u.)

  No.       Tag          Charge          X              Y              Z
 ---- ---------------- ---------- -------------- -------------- --------------
    1 O                    8.0000    -0.17255800    -0.10842430     0.00000000
    2 H                    1.0000    -0.17255800     1.62441870     0.00000000
    3 H                    1.0000     1.55302200    -0.75702430     0.00000000

 Vector    1  Occ=1.999988D+00  E=-2.053939D+01  Symmetry=a

 Vector    2  Occ=1.999019D+00  E=-1.357444D+00  Symmetry=a

 Vector    3  Occ=1.982711D+00  E=-7.524788D-01  Symmetry=a

 Vector    4  Occ=1.980031D+00  E=-5.863250D-01  Symmetry=a

 Vector    5  Occ=1.977222D+00  E=-5.264206D-01  Symmetry=a

 Vector    6  Occ=2.348435D-02  E=-2.570121D-02  Symmetry=a

 Vector    7  Occ=2.054362D-02  E=-2.324348D-02  Symmetry=a

 Vector    8  Occ=1.700153D-02  E=-1.602204D-02  Symmetry=a

 Vector    9  Occ=0.000000D+00  E= 2.894204D-01  Symmetry=a

 Vector   10  Occ=0.000000D+00  E= 3.354309D-01  Symmetry=a

 Vector   11  Occ=0.000000D+00  E= 6.125321D-01  Symmetry=a

 Vector   12  Occ=0.000000D+00  E= 6.542089D-01  Symmetry=a

 Vector   13  Occ=0.000000D+00  E= 8.099318D-01  Symmetry=a

 Vector   14  Occ=0.000000D+00  E= 8.491344D-01  Symmetry=a

 Vector   15  Occ=0.000000D+00  E= 9.738843D-01  Symmetry=a

 Vector   16  Occ=0.000000D+00  E= 1.108557D+00  Symmetry=a

 Vector   17  Occ=0.000000D+00  E= 1.184762D+00  Symmetry=a

 Vector   18  Occ=0.000000D+00  E= 1.378942D+00  Symmetry=a

         Total SCF energy =    -76.054114399214

 Vector    2  Occ=2.000000D+00  E=-1.357444D+00

 Vector    3  Occ=2.000000D+00  E=-7.524788D-01

 Vector    4  Occ=2.000000D+00  E=-5.863250D-01

 Vector    5  Occ=2.000000D+00  E=-5.264206D-01

 Vector    6  Occ=0.000000D+00  E=-2.570121D-02

 Vector    7  Occ=0.000000D+00  E=-2.324348D-02

 Vector    8  Occ=0.000000D+00  E=-1.602204D-02

 Vector    9  Occ=0.000000D+00  E= 2.894204D-01

 Vector   10  Occ=0.000000D+00  E= 3.354309D-01

 Vector   11  Occ=0.000000D+00  E= 6.125321D-01

 Vector   12  Occ=0.000000D+00  E= 6.542089D-01

 Vector   13  Occ=0.000000D+00  E= 8.099318D-01

 Vector   14  Occ=0.000000D+00  E= 8.491344D-01

 Vector   15  Occ=0.000000D+00  E= 9.738843D-01

       Multipole analysis of the density wrt the origin
       ------------------------------------------------

     L   x y z        total         open         nuclear
     -   - - -        -----         ----         -------
     0   0 0 0     -0.000000      0.000000     10.000000

     1   1 0 0      0.596003      0.000000     -0.000000
     1   0 1 0      0.389009      0.000000      0.000000
     1   0 0 1     -0.000001      0.000000      0.000000

     2   2 0 0     -4.058319      0.000000      2.679864
     2   1 1 0     -0.805226      0.000000     -1.306306
     2   1 0 1     -0.000000      0.000000      0.000000
     2   0 2 0     -3.575493      0.000000      3.305869
     2   0 1 1     -0.000000      0.000000      0.000000

 CCSD total energy / hartree       =       -76.334858539359885
 Total times  cpu:      530.4s     wall:      535.1s
