============================== echo of input deck ==============================
 echo
 start H2O
 title "H2O"

 memory total 24 gb

 geometry units bohr
 symmetry c1
        O  0.00000000  0.00000000  0.00000000
        H  0.00000000  1.76049475  0.00000000
        H  1.72558000 -0.64860000  0.00000000
 end

 basis spherical
   * library cc-pVTZ
 end

 mcscf
   active  8
   actelec 10
   multiplicity 1
   maxiter 40
   vectors input h2o.mos
   vectors output h2o.mos
 end

 task mcscf

 scf
   vectors input h2o.mos
   vectors output h2o-trash.mos
   noscf
 end

 tce
   2eorb
   2emet 13
   ccsd
 end

# set tce:print_integrals T
# set tce:qorb 8
# set tce:qela 5
# set tce:qelb 5

 set tce:qducc T
 set tce:nactv 3
 set tce:nonhf T
 set tce:ducc_model 6

 set tce:printtol 0.02

 task tce
================================================================================

 Output coordinates in a.u. (scale by  1.000000000 to convert to a.u.)

  No.       Tag          Charge          X              Y              Z
 ---- ---------------- ---------- -------------- -------------- --------------
    1 O                    8.0000    -0.17255800    -0.11118948     0.00000000
    2 H                    1.0000    -0.17255800     1.64930528     0.00000000
    3 H                    1.0000     1.55302200    -0.75978948     0.00000000

 Vector    1  Occ=1.999988D+00  E=-2.054066D+01  Symmetry=a

 Vector    2  Occ=1.998996D+00  E=-1.353269D+00  Symmetry=a

 Vector    3  Occ=1.982577D+00  E=-7.483658D-01  Symmetry=a

 Vector    4  Occ=1.979280D+00  E=-5.852110D-01  Symmetry=a

 Vector    5  Occ=1.977113D+00  E=-5.257651D-01  Symmetry=a

 Vector    6  Occ=2.359769D-02  E=-2.574845D-02  Symmetry=a

 Vector    7  Occ=2.132399D-02  E=-2.378008D-02  Symmetry=a

 Vector    8  Occ=1.712412D-02  E=-1.602405D-02  Symmetry=a

 Vector    9  Occ=0.000000D+00  E= 2.911003D-01  Symmetry=a

 Vector   10  Occ=0.000000D+00  E= 3.354695D-01  Symmetry=a

 Vector   11  Occ=0.000000D+00  E= 6.122568D-01  Symmetry=a

 Vector   12  Occ=0.000000D+00  E= 6.550538D-01  Symmetry=a

 Vector   13  Occ=0.000000D+00  E= 8.101072D-01  Symmetry=a

 Vector   14  Occ=0.000000D+00  E= 8.476961D-01  Symmetry=a

 Vector   15  Occ=0.000000D+00  E= 9.738158D-01  Symmetry=a

 Vector   16  Occ=0.000000D+00  E= 1.114582D+00  Symmetry=a

 Vector   17  Occ=0.000000D+00  E= 1.180410D+00  Symmetry=a

 Vector   18  Occ=0.000000D+00  E= 1.380022D+00  Symmetry=a

         Total SCF energy =    -76.054607570302

 Vector    2  Occ=2.000000D+00  E=-1.353269D+00

 Vector    3  Occ=2.000000D+00  E=-7.483658D-01

 Vector    4  Occ=2.000000D+00  E=-5.852110D-01

 Vector    5  Occ=2.000000D+00  E=-5.257651D-01

 Vector    6  Occ=0.000000D+00  E=-2.574845D-02

 Vector    7  Occ=0.000000D+00  E=-2.378008D-02

 Vector    8  Occ=0.000000D+00  E=-1.602405D-02

 Vector    9  Occ=0.000000D+00  E= 2.911003D-01

 Vector   10  Occ=0.000000D+00  E= 3.354695D-01

 Vector   11  Occ=0.000000D+00  E= 6.122568D-01

 Vector   12  Occ=0.000000D+00  E= 6.550538D-01

 Vector   13  Occ=0.000000D+00  E= 8.101072D-01

 Vector   14  Occ=0.000000D+00  E= 8.476961D-01

 Vector   15  Occ=0.000000D+00  E= 9.738158D-01

       Multipole analysis of the density wrt the origin
       ------------------------------------------------

     L   x y z        total         open         nuclear
     -   - - -        -----         ----         -------
     0   0 0 0     -0.000000      0.000000     10.000000

     1   1 0 0      0.594271      0.000000     -0.000000
     1   0 1 0      0.393908      0.000000      0.000000
     1   0 0 1     -0.000001      0.000000      0.000000

     2   2 0 0     -4.070446      0.000000      2.679864
     2   1 1 0     -0.808066      0.000000     -1.311078
     2   1 0 1     -0.000001      0.000000      0.000000
     2   0 2 0     -3.555254      0.000000      3.396393
     2   0 1 1     -0.000001      0.000000      0.000000

 CCSD total energy / hartree       =       -76.335785711371855
 Total times  cpu:     3376.2s     wall:     3409.2s
