============================== echo of input deck ==============================
 echo
 start H2O
 title "H2O"

 memory total 24 gb

 geometry units bohr
 symmetry c1
        O  0.00000000  0.00000000  0.00000000
        H  0.00000000  1.96327425  0.00000000
        H  1.72558000 -0.64860000  0.00000000
 end

 basis spherical
   * library cc-pVTZ
 end

 mcscf
   active  8
   actelec 10
   multiplicity 1
   maxiter 40
   vectors input h2o.mos
   vectors output h2o.mos
 end

 task mcscf

 scf
   vectors input h2o.mos
   vectors output h2o-trash.mos
   noscf
 end

 tce
   2eorb
   2emet 13
   ccsd
 end

# set tce:print_integrals T
# set tce:qorb 8
# set tce:qela 5
# set tce:qelb 5

 set tce:qducc T
 set tce:nactv 3
 set tce:nonhf T
 set tce:ducc_model 6

 set tce:printtol 0.02

 task tce
================================================================================

 Output coordinates in a.u. (scale by  1.000000000 to convert to a.u.)

  No.       Tag          Charge          X              Y              Z
 ---- ---------------- ---------- -------------- -------------- --------------
    1 O                    8.0000    -0.17255800    -0.13146743     0.00000000
    2 H                    1.0000    -0.17255800     1.83180683     0.00000000
    3 H                    1.0000     1.55302200    -0.78006743     0.00000000

 Vector    1  Occ=1.999989D+00  E=-2.054925D+01  Symmetry=a

 Vector    2  Occ=1.998809D+00  E=-1.327956D+00  Symmetry=a

 Vector    3  Occ=1.981651D+00  E=-7.201744D-01  Symmetry=a

 Vector    4  Occ=1.976333D+00  E=-5.766266D-01  Symmetry=a

 Vector    5  Occ=1.972590D+00  E=-5.217360D-01  Symmetry=a

 Vector    6  Occ=2.829028D-02  E=-2.851603D-02  Symmetry=a

 Vector    7  Occ=2.437826D-02  E=-2.561620D-02  Symmetry=a

 Vector    8  Occ=1.795906D-02  E=-1.597033D-02  Symmetry=a

 Vector    9  Occ=0.000000D+00  E= 3.009056D-01  Symmetry=a

 Vector   10  Occ=0.000000D+00  E= 3.353206D-01  Symmetry=a

 Vector   11  Occ=0.000000D+00  E= 6.120446D-01  Symmetry=a

 Vector   12  Occ=0.000000D+00  E= 6.686983D-01  Symmetry=a

 Vector   13  Occ=0.000000D+00  E= 8.129496D-01  Symmetry=a

 Vector   14  Occ=0.000000D+00  E= 8.368412D-01  Symmetry=a

 Vector   15  Occ=0.000000D+00  E= 9.729900D-01  Symmetry=a

 Vector   16  Occ=0.000000D+00  E= 1.144796D+00  Symmetry=a

 Vector   17  Occ=0.000000D+00  E= 1.163129D+00  Symmetry=a

 Vector   18  Occ=0.000000D+00  E= 1.320911D+00  Symmetry=a

         Total SCF energy =    -76.045391656455

 Vector    2  Occ=2.000000D+00  E=-1.327956D+00

 Vector    3  Occ=2.000000D+00  E=-7.201744D-01

 Vector    4  Occ=2.000000D+00  E=-5.766266D-01

 Vector    5  Occ=2.000000D+00  E=-5.217360D-01

 Vector    6  Occ=0.000000D+00  E=-2.851603D-02

 Vector    7  Occ=0.000000D+00  E=-2.561620D-02

 Vector    8  Occ=0.000000D+00  E=-1.597033D-02

 Vector    9  Occ=0.000000D+00  E= 3.009056D-01

 Vector   10  Occ=0.000000D+00  E= 3.353206D-01

 Vector   11  Occ=0.000000D+00  E= 6.120446D-01

 Vector   12  Occ=0.000000D+00  E= 6.686983D-01

 Vector   13  Occ=0.000000D+00  E= 8.129496D-01

 Vector   14  Occ=0.000000D+00  E= 8.368412D-01

 Vector   15  Occ=0.000000D+00  E= 9.729900D-01

       Multipole analysis of the density wrt the origin
       ------------------------------------------------

     L   x y z        total         open         nuclear
     -   - - -        -----         ----         -------
     0   0 0 0     -0.000000      0.000000     10.000000

     1   1 0 0      0.582752      0.000000     -0.000000
     1   0 1 0      0.426406      0.000000      0.000000
     1   0 0 1     -0.000006      0.000000      0.000000

     2   2 0 0     -4.155330      0.000000      2.679864
     2   1 1 0     -0.828022      0.000000     -1.346069
     2   1 0 1     -0.000004      0.000000      0.000000
     2   0 2 0     -3.396876      0.000000      4.102291
     2   0 1 1     -0.000002      0.000000      0.000000

 CCSD total energy / hartree       =       -76.329955144541444
 Total times  cpu:      689.9s     wall:      695.7s
