============================== echo of input deck ==============================
 echo
 start H2O
 title "H2O"

 memory total 24 gb

 geometry units bohr
 symmetry c1
        O  0.00000000  0.00000000  0.00000000
        H  0.00000000  3.2260375  0.00000000
        H  1.72558000 -0.64860000  0.00000000
 end

 basis spherical
   * library cc-pVTZ
 end

 mcscf
   active  8
   actelec 10
   multiplicity 1
   maxiter 40
   vectors input h2o.mos
   vectors output h2o.mos
 end

 task mcscf

 scf
   vectors input h2o.mos
   vectors output h2o-trash.mos
   noscf
 end

 tce
   2eorb
   2emet 13
   ccsd
 end

# set tce:print_integrals T
# set tce:qorb 8
# set tce:qela 5
# set tce:qelb 5

 set tce:qducc T
 set tce:nactv 3
 set tce:nonhf T
 set tce:ducc_model 6

 set tce:printtol 0.02

 task tce
================================================================================

 Output coordinates in a.u. (scale by  1.000000000 to convert to a.u.)

  No.       Tag          Charge          X              Y              Z
 ---- ---------------- ---------- -------------- -------------- --------------
    1 O                    8.0000    -0.17255800    -0.25774375     0.00000000
    2 H                    1.0000    -0.17255800     2.96829375     0.00000000
    3 H                    1.0000     1.55302200    -0.90634375     0.00000000

 Vector    1  Occ=1.999991D+00  E=-2.059340D+01  Symmetry=a

 Vector    2  Occ=1.998088D+00  E=-1.293627D+00  Symmetry=a

 Vector    3  Occ=1.981917D+00  E=-6.590252D-01  Symmetry=a

 Vector    4  Occ=1.973836D+00  E=-5.309291D-01  Symmetry=a

 Vector    5  Occ=1.792855D+00  E=-4.851210D-01  Symmetry=a

 Vector    6  Occ=2.087906D-01  E=-8.702237D-02  Symmetry=a

 Vector    7  Occ=2.704785D-02  E=-2.625597D-02  Symmetry=a

 Vector    8  Occ=1.747449D-02  E=-1.411369D-02  Symmetry=a

 Vector    9  Occ=0.000000D+00  E= 3.119507D-01  Symmetry=a

 Vector   10  Occ=0.000000D+00  E= 3.606208D-01  Symmetry=a

 Vector   11  Occ=0.000000D+00  E= 6.044900D-01  Symmetry=a

 Vector   12  Occ=0.000000D+00  E= 7.797101D-01  Symmetry=a

 Vector   13  Occ=0.000000D+00  E= 7.851806D-01  Symmetry=a

 Vector   14  Occ=0.000000D+00  E= 8.679177D-01  Symmetry=a

 Vector   15  Occ=0.000000D+00  E= 9.451897D-01  Symmetry=a

 Vector   16  Occ=0.000000D+00  E= 9.451956D-01  Symmetry=a

 Vector   17  Occ=0.000000D+00  E= 9.906464D-01  Symmetry=a

 Vector   18  Occ=0.000000D+00  E= 1.320126D+00  Symmetry=a

         Total SCF energy =    -75.871724808980

 Vector    2  Occ=2.000000D+00  E=-1.293627D+00

 Vector    3  Occ=2.000000D+00  E=-6.590252D-01

 Vector    4  Occ=2.000000D+00  E=-5.309291D-01

 Vector    5  Occ=2.000000D+00  E=-4.851210D-01

 Vector    6  Occ=0.000000D+00  E=-8.702237D-02

 Vector    7  Occ=0.000000D+00  E=-2.625597D-02

 Vector    8  Occ=0.000000D+00  E=-1.411369D-02

 Vector    9  Occ=0.000000D+00  E= 3.119507D-01

 Vector   10  Occ=0.000000D+00  E= 3.606208D-01

 Vector   11  Occ=0.000000D+00  E= 6.044900D-01

 Vector   12  Occ=0.000000D+00  E= 7.797101D-01

 Vector   13  Occ=0.000000D+00  E= 7.851806D-01

 Vector   14  Occ=0.000000D+00  E= 8.679177D-01

 Vector   15  Occ=0.000000D+00  E= 9.451897D-01

       Multipole analysis of the density wrt the origin
       ------------------------------------------------

     L   x y z        total         open         nuclear
     -   - - -        -----         ----         -------
     0   0 0 0     -0.000000      0.000000     10.000000

     1   1 0 0      0.560258      0.000000     -0.000000
     1   0 1 0      0.294635      0.000000     -0.000000
     1   0 0 1      0.000000      0.000000      0.000000

     2   2 0 0     -4.477934      0.000000      2.679864
     2   1 1 0     -0.828380      0.000000     -1.563969
     2   1 0 1     -0.000000      0.000000      0.000000
     2   0 2 0     -2.877625      0.000000     10.163682
     2   0 1 1     -0.000000      0.000000      0.000000

 CCSD total energy / hartree       =       -76.192212585481371
 Total times  cpu:      528.8s     wall:      536.6s
