============================== echo of input deck ==============================
 echo
 start H2O
 title "H2O"

 memory total 24 gb

 geometry units bohr
 symmetry c1
        O  0.00000000  0.00000000  0.00000000
        H  0.00000000  3.31821  0.00000000
        H  1.72558000 -0.64860000  0.00000000
 end

 basis spherical
   * library cc-pVTZ
 end

 mcscf
   active  8
   actelec 10
   multiplicity 1
   maxiter 40
   vectors input h2o.mos
   vectors output h2o.mos
 end

 task mcscf

 scf
   vectors input h2o.mos
   vectors output h2o-trash.mos
   noscf
 end

 tce
   2eorb
   2emet 13
   ccsd
   maxiter 300
 end

# set tce:print_integrals T
# set tce:qorb 8
# set tce:qela 5
# set tce:qelb 5

 set tce:qducc T
 set tce:nactv 3
 set tce:nonhf T
 set tce:ducc_model 6

 set tce:printtol 0.02

 task tce
================================================================================

 Output coordinates in a.u. (scale by  1.000000000 to convert to a.u.)

  No.       Tag          Charge          X              Y              Z
 ---- ---------------- ---------- -------------- -------------- --------------
    1 O                    8.0000    -0.17255800    -0.26696100     0.00000000
    2 H                    1.0000    -0.17255800     3.05124900     0.00000000
    3 H                    1.0000     1.55302200    -0.91556100     0.00000000

 Vector    1  Occ=1.999991D+00  E=-2.059756D+01  Symmetry=a

 Vector    2  Occ=1.998138D+00  E=-1.296323D+00  Symmetry=a

 Vector    3  Occ=1.982268D+00  E=-6.616694D-01  Symmetry=a

 Vector    4  Occ=1.973887D+00  E=-5.345406D-01  Symmetry=a

 Vector    5  Occ=1.763808D+00  E=-4.733748D-01  Symmetry=a

 Vector    6  Occ=2.377267D-01  E=-9.781781D-02  Symmetry=a

 Vector    7  Occ=2.701942D-02  E=-2.630492D-02  Symmetry=a

 Vector    8  Occ=1.716110D-02  E=-1.385735D-02  Symmetry=a

 Vector    9  Occ=0.000000D+00  E= 3.073026D-01  Symmetry=a

 Vector   10  Occ=0.000000D+00  E= 3.666010D-01  Symmetry=a

 Vector   11  Occ=0.000000D+00  E= 6.081426D-01  Symmetry=a

 Vector   12  Occ=0.000000D+00  E= 7.762241D-01  Symmetry=a

 Vector   13  Occ=0.000000D+00  E= 7.914227D-01  Symmetry=a

 Vector   14  Occ=0.000000D+00  E= 8.705469D-01  Symmetry=a

 Vector   15  Occ=0.000000D+00  E= 9.301477D-01  Symmetry=a

 Vector   16  Occ=0.000000D+00  E= 9.417749D-01  Symmetry=a

 Vector   17  Occ=0.000000D+00  E= 9.843466D-01  Symmetry=a

 Vector   18  Occ=0.000000D+00  E= 1.322155D+00  Symmetry=a

         Total SCF energy =    -75.860035565207

 Vector    2  Occ=2.000000D+00  E=-1.296323D+00

 Vector    3  Occ=2.000000D+00  E=-6.616694D-01

 Vector    4  Occ=2.000000D+00  E=-5.345406D-01

 Vector    5  Occ=2.000000D+00  E=-4.733748D-01

 Vector    6  Occ=0.000000D+00  E=-9.781781D-02

 Vector    7  Occ=0.000000D+00  E=-2.630492D-02

 Vector    8  Occ=0.000000D+00  E=-1.385735D-02

 Vector    9  Occ=0.000000D+00  E= 3.073026D-01

 Vector   10  Occ=0.000000D+00  E= 3.666010D-01

 Vector   11  Occ=0.000000D+00  E= 6.081426D-01

 Vector   12  Occ=0.000000D+00  E= 7.762241D-01

 Vector   13  Occ=0.000000D+00  E= 7.914227D-01

 Vector   14  Occ=0.000000D+00  E= 8.705469D-01

 Vector   15  Occ=0.000000D+00  E= 9.301477D-01

       Multipole analysis of the density wrt the origin
       ------------------------------------------------

     L   x y z        total         open         nuclear
     -   - - -        -----         ----         -------
     0   0 0 0     -0.000000      0.000000     10.000000

     1   1 0 0      0.561636      0.000000     -0.000000
     1   0 1 0      0.264557      0.000000      0.000000
     1   0 0 1      0.000001      0.000000      0.000000

     2   2 0 0     -4.486724      0.000000      2.679864
     2   1 1 0     -0.817756      0.000000     -1.579874
     2   1 0 1     -0.000001      0.000000      0.000000
     2   0 2 0     -2.907079      0.000000     10.718518
     2   0 1 1     -0.000001      0.000000      0.000000

 CCSD total energy / hartree       =       -76.184728963001263
 Total times  cpu:      538.9s     wall:      546.6s
