============================== echo of input deck ==============================
 echo
 start H2O
 title "H2O"

 memory total 24 gb

 geometry units bohr
 symmetry c1
        O  0.00000000  0.00000000  0.00000000
        H  0.00000000  3.6869  0.00000000
        H  1.72558000 -0.64860000  0.00000000
 end

 basis spherical
   * library cc-pVTZ
 end

 mcscf
   active  8
   actelec 10
   multiplicity 1
   maxiter 40
   vectors input h2o.mos
   vectors output h2o.mos
 end

 task mcscf

 scf
   vectors input h2o.mos
   vectors output h2o-trash.mos
   noscf
 end

 tce
   2eorb
   2emet 13
   ccsd
 end

# set tce:print_integrals T
# set tce:qorb
# set tce:qela
# set tce:qelb

# set tce:qducc T
# set tce:nactv
# set tce:nonhf F
# set tce:ducc_model 3

 set tce:printtol 0.02

 task tce

 tce
   2eorb
   2emet 13
   ccsd
   freeze virtual 50
 end

 set tce:printtol 0.02

 task tce
================================================================================

 Output coordinates in a.u. (scale by  1.000000000 to convert to a.u.)

  No.       Tag          Charge          X              Y              Z
 ---- ---------------- ---------- -------------- -------------- --------------
    1 O                    8.0000    -0.17255800    -0.30383000     0.00000000
    2 H                    1.0000    -0.17255800     3.38307000     0.00000000
    3 H                    1.0000     1.55302200    -0.95243000     0.00000000

 Vector    1  Occ=1.999991D+00  E=-2.060534D+01  Symmetry=a

 Vector    2  Occ=1.998377D+00  E=-1.301287D+00  Symmetry=a

 Vector    3  Occ=1.983541D+00  E=-6.662317D-01  Symmetry=a

 Vector    4  Occ=1.974177D+00  E=-5.415525D-01  Symmetry=a

 Vector    5  Occ=1.633005D+00  E=-4.381085D-01  Symmetry=a

 Vector    6  Occ=3.680458D-01  E=-1.305045D-01  Symmetry=a

 Vector    7  Occ=2.681693D-02  E=-2.628959D-02  Symmetry=a

 Vector    8  Occ=1.604705D-02  E=-1.350027D-02  Symmetry=a

 Vector    9  Occ=0.000000D+00  E= 3.012235D-01  Symmetry=a

 Vector   10  Occ=0.000000D+00  E= 3.799259D-01  Symmetry=a

 Vector   11  Occ=0.000000D+00  E= 6.101978D-01  Symmetry=a

 Vector   12  Occ=0.000000D+00  E= 7.735232D-01  Symmetry=a

 Vector   13  Occ=0.000000D+00  E= 7.884131D-01  Symmetry=a

 Vector   14  Occ=0.000000D+00  E= 8.520671D-01  Symmetry=a

 Vector   15  Occ=0.000000D+00  E= 8.838983D-01  Symmetry=a

 Vector   16  Occ=0.000000D+00  E= 9.282787D-01  Symmetry=a

 Vector   17  Occ=0.000000D+00  E= 9.689445D-01  Symmetry=a

 Vector   18  Occ=0.000000D+00  E= 1.322441D+00  Symmetry=a

         Total SCF energy =    -75.816946733076

 Vector    2  Occ=2.000000D+00  E=-1.301287D+00

 Vector    3  Occ=2.000000D+00  E=-6.662317D-01

 Vector    4  Occ=2.000000D+00  E=-5.415525D-01

 Vector    5  Occ=2.000000D+00  E=-4.381085D-01

 Vector    6  Occ=0.000000D+00  E=-1.305045D-01

 Vector    7  Occ=0.000000D+00  E=-2.628959D-02

 Vector    8  Occ=0.000000D+00  E=-1.350027D-02

 Vector    9  Occ=0.000000D+00  E= 3.012235D-01

 Vector   10  Occ=0.000000D+00  E= 3.799259D-01

 Vector   11  Occ=0.000000D+00  E= 6.101978D-01

 Vector   12  Occ=0.000000D+00  E= 7.735232D-01

 Vector   13  Occ=0.000000D+00  E= 7.884131D-01

 Vector   14  Occ=0.000000D+00  E= 8.520671D-01

 Vector   15  Occ=0.000000D+00  E= 8.838983D-01

       Multipole analysis of the density wrt the origin
       ------------------------------------------------

     L   x y z        total         open         nuclear
     -   - - -        -----         ----         -------
     0   0 0 0     -0.000000      0.000000     10.000000

     1   1 0 0      0.569040      0.000000     -0.000000
     1   0 1 0      0.146727      0.000000     -0.000000
     1   0 0 1      0.000000      0.000000      0.000000

     2   2 0 0     -4.505816      0.000000      2.679864
     2   1 1 0     -0.769564      0.000000     -1.643494
     2   1 0 1     -0.000000      0.000000      0.000000
     2   0 2 0     -3.074763      0.000000     13.090787
     2   0 1 1     -0.000000      0.000000      0.000000

 CCSD total energy / hartree       =       -76.160420627075766
         Total SCF energy =    -75.816946733076
 CCSD total energy / hartree       =       -75.990925488162446
 Total times  cpu:       19.6s     wall:       27.4s
