============================== echo of input deck ==============================
 echo
 start H2O
 title "H2O"

 memory total 24 gb

 geometry units bohr
 symmetry c1
        O  0.00000000  0.00000000  0.00000000
        H  0.00000000  2.58083  0.00000000
        H  1.72558000 -0.64860000  0.00000000
 end

 basis spherical
   * library cc-pVTZ
 end

 scf
   vectors input h2o.mos
   vectors output h2o.mos
 end

 tce
   2eorb
   2emet 13
   ccsd
 end

# set tce:print_integrals T
# set tce:qorb
# set tce:qela
# set tce:qelb

# set tce:qducc T
# set tce:nactv
# set tce:nonhf F
# set tce:ducc_model 3

 set tce:printtol 0.02

 task tce

 tce
   2eorb
   2emet 13
   ccsd
   freeze virtual 50
 end

 set tce:printtol 0.02

 task tce

================================================================================

 Output coordinates in a.u. (scale by  1.000000000 to convert to a.u.)

  No.       Tag          Charge          X              Y              Z
 ---- ---------------- ---------- -------------- -------------- --------------
    1 O                    8.0000    -0.17255800    -0.19322300     0.00000000
    2 H                    1.0000    -0.17255800     2.38760700     0.00000000
    3 H                    1.0000     1.55302200    -0.84182300     0.00000000

         Total SCF energy =    -75.965215552853

 Vector    2  Occ=2.000000D+00  E=-1.280932D+00

 Vector    3  Occ=2.000000D+00  E=-6.382827D-01

 Vector    4  Occ=2.000000D+00  E=-5.131574D-01

 Vector    5  Occ=2.000000D+00  E=-4.940492D-01

 Vector    6  Occ=0.000000D+00  E= 8.643609D-02

 Vector    7  Occ=0.000000D+00  E= 1.846252D-01

 Vector    8  Occ=0.000000D+00  E= 4.139550D-01

 Vector    9  Occ=0.000000D+00  E= 5.571951D-01

 Vector   10  Occ=0.000000D+00  E= 6.990695D-01

 Vector   11  Occ=0.000000D+00  E= 7.359442D-01

 Vector   12  Occ=0.000000D+00  E= 8.216996D-01

 Vector   13  Occ=0.000000D+00  E= 8.444384D-01

 Vector   14  Occ=0.000000D+00  E= 8.541483D-01

 Vector   15  Occ=0.000000D+00  E= 9.705321D-01

       Multipole analysis of the density wrt the origin
       ------------------------------------------------

     L   x y z        total         open         nuclear
     -   - - -        -----         ----         -------
     0   0 0 0     -0.000000      0.000000     10.000000

     1   1 0 0      0.601921      0.000000     -0.000000
     1   0 1 0      0.542350      0.000000      0.000000
     1   0 0 1      0.000000      0.000000      0.000000

     2   2 0 0     -4.330898      0.000000      2.679864
     2   1 1 0     -0.915736      0.000000     -1.452633
     2   1 0 1      0.000000      0.000000      0.000000
     2   0 2 0     -2.719273      0.000000      6.708014
     2   0 1 1     -0.000000      0.000000      0.000000

 CCSD total energy / hartree       =       -76.260620910482800
         Total SCF energy =    -75.965215552853
 CCSD total energy / hartree       =       -75.999006716397417
 Total times  cpu:        5.9s     wall:        6.1s
