============================== echo of input deck ==============================
 echo
 start Be
 title "Be"

 memory total 24 gb

 geometry
 symmetry c1
        Be  0.00000000  0.00000000  0.00000000
 end

 basis
   * library cc-pVQZ
 end

 mcscf
   active  5
   actelec 4
   multiplicity 1
   maxiter 40
   vectors input Be_start.mos
   vectors output Be.mos
 end

 task mcscf

 scf
   vectors input Be.mos
   vectors output Be-trash.mos
   noscf
 end

 tce
   2eorb
   2emet 13
   ccsd
   diis 50
 end

# set tce:print_integrals T
# set tce:qorb 9
# set tce:qela 2
# set tce:qelb 2

 set tce:qducc T
 set tce:nactv 3
 set tce:nonhf T
 set tce:ducc_model 3

 set tce:printtol 0.02

 task tce
================================================================================

 Output coordinates in angstroms (scale by  1.889725989 to convert to a.u.)

  No.       Tag          Charge          X              Y              Z
 ---- ---------------- ---------- -------------- -------------- --------------
    1 Be                   4.0000     0.00000000     0.00000000     0.00000000

 Vector    1  Occ=1.999998D+00  E=-4.722589D+00  Symmetry=a

 Vector    2  Occ=1.805232D+00  E=-3.185521D-01  Symmetry=a

 Vector    3  Occ=6.492346D-02  E=-1.504727D-02  Symmetry=a

 Vector    4  Occ=6.492346D-02  E=-1.504727D-02  Symmetry=a

 Vector    5  Occ=6.492346D-02  E=-1.504727D-02  Symmetry=a

 Vector    6  Occ=0.000000D+00  E= 9.903305D-02  Symmetry=a

 Vector    7  Occ=0.000000D+00  E= 1.365223D-01  Symmetry=a

 Vector    8  Occ=0.000000D+00  E= 1.365223D-01  Symmetry=a

 Vector    9  Occ=0.000000D+00  E= 1.365223D-01  Symmetry=a

 Vector   10  Occ=0.000000D+00  E= 4.097929D-01  Symmetry=a

 Vector   11  Occ=0.000000D+00  E= 4.315191D-01  Symmetry=a

 Vector   12  Occ=0.000000D+00  E= 4.315191D-01  Symmetry=a

 Vector   13  Occ=0.000000D+00  E= 4.315191D-01  Symmetry=a

 Vector   14  Occ=0.000000D+00  E= 4.315191D-01  Symmetry=a

 Vector   15  Occ=0.000000D+00  E= 4.315191D-01  Symmetry=a

         Total SCF energy =    -14.572284507566

 Vector    2  Occ=2.000000D+00  E=-3.185521D-01

 Vector    3  Occ=0.000000D+00  E=-1.504727D-02

 Vector    4  Occ=0.000000D+00  E=-1.504727D-02

 Vector    5  Occ=0.000000D+00  E=-1.504727D-02

 Vector    6  Occ=0.000000D+00  E= 9.903305D-02

 Vector    7  Occ=0.000000D+00  E= 1.365223D-01

 Vector    8  Occ=0.000000D+00  E= 1.365223D-01

 Vector    9  Occ=0.000000D+00  E= 1.365223D-01

 Vector   10  Occ=0.000000D+00  E= 4.097929D-01

 Vector   11  Occ=0.000000D+00  E= 4.315191D-01

 Vector   12  Occ=0.000000D+00  E= 4.315191D-01

 Vector   13  Occ=0.000000D+00  E= 4.315191D-01

 Vector   14  Occ=0.000000D+00  E= 4.315191D-01

 Vector   15  Occ=0.000000D+00  E= 4.315191D-01

 Vector   16  Occ=0.000000D+00  E= 5.249305D-01

       Multipole analysis of the density wrt the origin
       ------------------------------------------------

     L   x y z        total         open         nuclear
     -   - - -        -----         ----         -------
     0   0 0 0     -0.000000      0.000000      4.000000

     1   1 0 0     -0.000000      0.000000      0.000000
     1   0 1 0     -0.000000      0.000000      0.000000
     1   0 0 1     -0.000000      0.000000      0.000000

     2   2 0 0     -5.444935      0.000000      0.000000
     2   1 1 0      0.000000      0.000000      0.000000
     2   1 0 1     -0.000000      0.000000      0.000000
     2   0 2 0     -5.444935      0.000000      0.000000
     2   0 1 1     -0.000000      0.000000      0.000000

 CCSD total energy / hartree       =       -14.651948990830405
 Total times  cpu:       34.5s     wall:       37.9s
