============================== echo of input deck ==============================
 echo
 start H2O
 title "H2O"

 memory total 24 gb

 geometry units bohr
 symmetry c1
        O  0.00000000  0.00000000  0.00000000
        H  0.00000000  2.765175  0.00000000
        H  1.72558000 -0.64860000  0.00000000
 end

 basis spherical
   * library cc-pVTZ
 end

 mcscf
   active  8
   actelec 10
   multiplicity 1
   maxiter 40
   vectors input h2o.mos
   vectors output h2o.mos
 end

 task mcscf

 scf
   vectors input h2o.mos
   vectors output h2o-trash.mos
   noscf
 end

 tce
   2eorb
   2emet 13
   ccsd
 end

# set tce:print_integrals T
# set tce:qorb
# set tce:qela
# set tce:qelb

 set tce:qducc T
 set tce:nactv 3
 set tce:nonhf T
 set tce:ducc_model 3

 set tce:printtol 0.02

 task tce
================================================================================

 Output coordinates in a.u. (scale by  1.000000000 to convert to a.u.)

  No.       Tag          Charge          X              Y              Z
 ---- ---------------- ---------- -------------- -------------- --------------
    1 O                    8.0000    -0.17255800    -0.21165750     0.00000000
    2 H                    1.0000    -0.17255800     2.55351750     0.00000000
    3 H                    1.0000     1.55302200    -0.86025750     0.00000000

 Vector    1  Occ=1.999990D+00  E=-2.057763D+01  Symmetry=a

 Vector    2  Occ=1.998046D+00  E=-1.290690D+00  Symmetry=a

 Vector    3  Occ=1.980468D+00  E=-6.601741D-01  Symmetry=a

 Vector    4  Occ=1.973969D+00  E=-5.263708D-01  Symmetry=a

 Vector    5  Occ=1.902220D+00  E=-5.215377D-01  Symmetry=a

 Vector    6  Occ=9.965230D-02  E=-5.668954D-02  Symmetry=a

 Vector    7  Occ=2.682129D-02  E=-2.614883D-02  Symmetry=a

 Vector    8  Occ=1.883355D-02  E=-1.484149D-02  Symmetry=a

 Vector    9  Occ=0.000000D+00  E= 3.163636D-01  Symmetry=a

 Vector   10  Occ=0.000000D+00  E= 3.443248D-01  Symmetry=a

 Vector   11  Occ=0.000000D+00  E= 6.046211D-01  Symmetry=a

 Vector   12  Occ=0.000000D+00  E= 7.590383D-01  Symmetry=a

 Vector   13  Occ=0.000000D+00  E= 7.954183D-01  Symmetry=a

 Vector   14  Occ=0.000000D+00  E= 8.490206D-01  Symmetry=a

 Vector   15  Occ=0.000000D+00  E= 9.600352D-01  Symmetry=a

 Vector   16  Occ=0.000000D+00  E= 1.036447D+00  Symmetry=a

 Vector   17  Occ=0.000000D+00  E= 1.047000D+00  Symmetry=a

 Vector   18  Occ=0.000000D+00  E= 1.293660D+00  Symmetry=a

         Total SCF energy =    -75.935269057133

 Vector    2  Occ=2.000000D+00  E=-1.290690D+00

 Vector    3  Occ=2.000000D+00  E=-6.601741D-01

 Vector    4  Occ=2.000000D+00  E=-5.263708D-01

 Vector    5  Occ=2.000000D+00  E=-5.215377D-01

 Vector    6  Occ=0.000000D+00  E=-5.668954D-02

 Vector    7  Occ=0.000000D+00  E=-2.614883D-02

 Vector    8  Occ=0.000000D+00  E=-1.484149D-02

 Vector    9  Occ=0.000000D+00  E= 3.163636D-01

 Vector   10  Occ=0.000000D+00  E= 3.443248D-01

 Vector   11  Occ=0.000000D+00  E= 6.046211D-01

 Vector   12  Occ=0.000000D+00  E= 7.590383D-01

 Vector   13  Occ=0.000000D+00  E= 7.954183D-01

 Vector   14  Occ=0.000000D+00  E= 8.490206D-01

 Vector   15  Occ=0.000000D+00  E= 9.600352D-01

       Multipole analysis of the density wrt the origin
       ------------------------------------------------

     L   x y z        total         open         nuclear
     -   - - -        -----         ----         -------
     0   0 0 0     -0.000000      0.000000     10.000000

     1   1 0 0      0.558585      0.000000     -0.000000
     1   0 1 0      0.419911      0.000000     -0.000000
     1   0 0 1      0.000000      0.000000      0.000000

     2   2 0 0     -4.405223      0.000000      2.679864
     2   1 1 0     -0.861813      0.000000     -1.484443
     2   1 0 1     -0.000000      0.000000      0.000000
     2   0 2 0     -2.868657      0.000000      7.618886
     2   0 1 1     -0.000000      0.000000      0.000000

 CCSD total energy / hartree       =       -76.238326801971866
 Total times  cpu:       31.3s     wall:       37.9s
