============================== echo of input deck ==============================
 echo
 start H2O
 title "H2O"

 memory total 24 gb

 geometry units bohr
 symmetry c1
        O  0.00000000  0.00000000  0.00000000
        H  0.00000000  5.53035  0.00000000
        H  1.72558000 -0.64860000  0.00000000
 end

 basis spherical
   * library cc-pVTZ
 end

 mcscf
   active  8
   actelec 10
   multiplicity 1
   maxiter 40
   vectors input h2o.mos
   vectors output h2o.mos
 end

 task mcscf

 scf
   vectors input h2o.mos
   vectors output h2o-trash.mos
   noscf
 end

 tce
   2eorb
   2emet 13
   ccsd
 end

# set tce:print_integrals T
# set tce:qorb
# set tce:qela
# set tce:qelb

 set tce:qducc T
 set tce:nactv 3
 set tce:nonhf T
 set tce:ducc_model 3

 set tce:printtol 0.02

 task tce
================================================================================

 Output coordinates in a.u. (scale by  1.000000000 to convert to a.u.)

  No.       Tag          Charge          X              Y              Z
 ---- ---------------- ---------- -------------- -------------- --------------
    1 O                    8.0000    -0.17255800    -0.48817500     0.00000000
    2 H                    1.0000    -0.17255800     5.04217500     0.00000000
    3 H                    1.0000     1.55302200    -1.13677500     0.00000000

 Vector    1  Occ=1.999992D+00  E=-2.061089D+01  Symmetry=a

 Vector    2  Occ=1.998903D+00  E=-1.307552D+00  Symmetry=a

 Vector    3  Occ=1.985545D+00  E=-6.727877D-01  Symmetry=a

 Vector    4  Occ=1.974857D+00  E=-5.499467D-01  Symmetry=a

 Vector    5  Occ=1.150205D+00  E=-3.375402D-01  Symmetry=a

 Vector    6  Occ=8.498619D-01  E=-2.346623D-01  Symmetry=a

 Vector    7  Occ=2.629090D-02  E=-2.610630D-02  Symmetry=a

 Vector    8  Occ=1.434387D-02  E=-1.276508D-02  Symmetry=a

 Vector    9  Occ=0.000000D+00  E= 2.739241D-01  Symmetry=a

 Vector   10  Occ=0.000000D+00  E= 4.145338D-01  Symmetry=a

 Vector   11  Occ=0.000000D+00  E= 6.414255D-01  Symmetry=a

 Vector   12  Occ=0.000000D+00  E= 6.949416D-01  Symmetry=a

 Vector   13  Occ=0.000000D+00  E= 7.888593D-01  Symmetry=a

 Vector   14  Occ=0.000000D+00  E= 7.986821D-01  Symmetry=a

 Vector   15  Occ=0.000000D+00  E= 8.384345D-01  Symmetry=a

 Vector   16  Occ=0.000000D+00  E= 8.852239D-01  Symmetry=a

 Vector   17  Occ=0.000000D+00  E= 9.638316D-01  Symmetry=a

 Vector   18  Occ=0.000000D+00  E= 1.113626D+00  Symmetry=a

         Total SCF energy =    -75.682015354332

 Vector    2  Occ=2.000000D+00  E=-1.307552D+00

 Vector    3  Occ=2.000000D+00  E=-6.727877D-01

 Vector    4  Occ=2.000000D+00  E=-5.499467D-01

 Vector    5  Occ=2.000000D+00  E=-3.375402D-01

 Vector    6  Occ=0.000000D+00  E=-2.346623D-01

 Vector    7  Occ=0.000000D+00  E=-2.610630D-02

 Vector    8  Occ=0.000000D+00  E=-1.276508D-02

 Vector    9  Occ=0.000000D+00  E= 2.739241D-01

 Vector   10  Occ=0.000000D+00  E= 4.145338D-01

 Vector   11  Occ=0.000000D+00  E= 6.414255D-01

 Vector   12  Occ=0.000000D+00  E= 6.949416D-01

 Vector   13  Occ=0.000000D+00  E= 7.888593D-01

 Vector   14  Occ=0.000000D+00  E= 7.986821D-01

 Vector   15  Occ=0.000000D+00  E= 8.384345D-01

       Multipole analysis of the density wrt the origin
       ------------------------------------------------

     L   x y z        total         open         nuclear
     -   - - -        -----         ----         -------
     0   0 0 0     -0.000000      0.000000     10.000000

     1   1 0 0      0.603728      0.000000     -0.000000
     1   0 1 0     -0.156621      0.000000      0.000000
     1   0 0 1      0.000000      0.000000      0.000000

     2   2 0 0     -4.446054      0.000000      2.679864
     2   1 1 0     -0.640169      0.000000     -1.961596
     2   1 0 1     -0.000000      0.000000      0.000000
     2   0 2 0     -3.904783      0.000000     28.622305
     2   0 1 1     -0.000000      0.000000      0.000000

 CCSD total energy / hartree       =       -76.119486100067249
 Total times  cpu:       41.3s     wall:       48.5s
