============================== echo of input deck ==============================
 echo
 start H2O
 title "H2O"

 memory total 24 gb

 geometry units bohr
 symmetry c1
        O  0.00000000  0.00000000  0.00000000
        H  0.00000000  1.769712  0.00000000
        H  1.72558000 -0.64860000  0.00000000
 end

 basis spherical
   * library cc-pVTZ
 end

 mcscf
   active  8
   actelec 10
   multiplicity 1
   maxiter 40
   vectors input h2o.mos
   vectors output h2o.mos
 end

 task mcscf

 scf
   vectors input h2o.mos
   vectors output h2o-trash.mos
   noscf
 end

 tce
   2eorb
   2emet 13
   ccsd
 end

# set tce:print_integrals T
# set tce:qorb
# set tce:qela
# set tce:qelb

# set tce:qducc T
# set tce:nactv
# set tce:nonhf F
# set tce:ducc_model 3

 set tce:printtol 0.02

 task tce

 tce
   2eorb
   2emet 13
   ccsd
   freeze virtual 50
 end

 set tce:printtol 0.02

 task tce
================================================================================

 Output coordinates in a.u. (scale by  1.000000000 to convert to a.u.)

  No.       Tag          Charge          X              Y              Z
 ---- ---------------- ---------- -------------- -------------- --------------
    1 O                    8.0000    -0.17255800    -0.11211120     0.00000000
    2 H                    1.0000    -0.17255800     1.65760080     0.00000000
    3 H                    1.0000     1.55302200    -0.76071120     0.00000000

 Vector    1  Occ=1.999988D+00  E=-2.054108D+01  Symmetry=a

 Vector    2  Occ=1.998988D+00  E=-1.351919D+00  Symmetry=a

 Vector    3  Occ=1.982532D+00  E=-7.470073D-01  Symmetry=a

 Vector    4  Occ=1.979023D+00  E=-5.848380D-01  Symmetry=a

 Vector    5  Occ=1.977076D+00  E=-5.255525D-01  Symmetry=a

 Vector    6  Occ=2.363659D-02  E=-2.576920D-02  Symmetry=a

 Vector    7  Occ=2.159089D-02  E=-2.395647D-02  Symmetry=a

 Vector    8  Occ=1.716465D-02  E=-1.602424D-02  Symmetry=a

 Vector    9  Occ=0.000000D+00  E= 2.916406D-01  Symmetry=a

 Vector   10  Occ=0.000000D+00  E= 3.354784D-01  Symmetry=a

 Vector   11  Occ=0.000000D+00  E= 6.121967D-01  Symmetry=a

 Vector   12  Occ=0.000000D+00  E= 6.553880D-01  Symmetry=a

 Vector   13  Occ=0.000000D+00  E= 8.101759D-01  Symmetry=a

 Vector   14  Occ=0.000000D+00  E= 8.472136D-01  Symmetry=a

 Vector   15  Occ=0.000000D+00  E= 9.737907D-01  Symmetry=a

 Vector   16  Occ=0.000000D+00  E= 1.116603D+00  Symmetry=a

 Vector   17  Occ=0.000000D+00  E= 1.178967D+00  Symmetry=a

 Vector   18  Occ=0.000000D+00  E= 1.380253D+00  Symmetry=a

         Total SCF energy =    -76.054655946230

 Vector    2  Occ=2.000000D+00  E=-1.351919D+00

 Vector    3  Occ=2.000000D+00  E=-7.470073D-01

 Vector    4  Occ=2.000000D+00  E=-5.848380D-01

 Vector    5  Occ=2.000000D+00  E=-5.255525D-01

 Vector    6  Occ=0.000000D+00  E=-2.576920D-02

 Vector    7  Occ=0.000000D+00  E=-2.395647D-02

 Vector    8  Occ=0.000000D+00  E=-1.602424D-02

 Vector    9  Occ=0.000000D+00  E= 2.916406D-01

 Vector   10  Occ=0.000000D+00  E= 3.354784D-01

 Vector   11  Occ=0.000000D+00  E= 6.121967D-01

 Vector   12  Occ=0.000000D+00  E= 6.553880D-01

 Vector   13  Occ=0.000000D+00  E= 8.101759D-01

 Vector   14  Occ=0.000000D+00  E= 8.472136D-01

 Vector   15  Occ=0.000000D+00  E= 9.737907D-01

       Multipole analysis of the density wrt the origin
       ------------------------------------------------

     L   x y z        total         open         nuclear
     -   - - -        -----         ----         -------
     0   0 0 0     -0.000000      0.000000     10.000000

     1   1 0 0      0.593702      0.000000     -0.000000
     1   0 1 0      0.395523      0.000000      0.000000
     1   0 0 1     -0.000001      0.000000      0.000000

     2   2 0 0     -4.074460      0.000000      2.679864
     2   1 1 0     -0.809009      0.000000     -1.312668
     2   1 0 1     -0.000001      0.000000      0.000000
     2   0 2 0     -3.548421      0.000000      3.426873
     2   0 1 1     -0.000001      0.000000      0.000000

 CCSD total energy / hartree       =       -76.335980358065655
         Total SCF energy =    -76.054655946230
 CCSD total energy / hartree       =       -76.147177696035456
 Total times  cpu:       14.2s     wall:       18.0s
