============================== echo of input deck ==============================
 echo
 start H2O
 title "H2O"

 memory total 24 gb

 geometry units bohr
 symmetry c1
        O  0.00000000  0.00000000  0.00000000
        H  0.00000000  1.8618845  0.00000000
        H  1.72558000 -0.64860000  0.00000000
 end

 basis spherical
   * library cc-pVTZ
 end

 mcscf
   active  8
   actelec 10
   multiplicity 1
   maxiter 40
   vectors input h2o.mos
   vectors output h2o.mos
 end

 task mcscf

 scf
   vectors input h2o.mos
   vectors output h2o-trash.mos
   noscf
 end

 tce
   2eorb
   2emet 13
   ccsd
 end

# set tce:print_integrals T
# set tce:qorb
# set tce:qela
# set tce:qelb

# set tce:qducc T
# set tce:nactv
# set tce:nonhf F
# set tce:ducc_model 3

 set tce:printtol 0.02

 task tce

 tce
   2eorb
   2emet 13
   ccsd
   freeze virtual 50
 end

 set tce:printtol 0.02

 task tce
================================================================================

 Output coordinates in a.u. (scale by  1.000000000 to convert to a.u.)

  No.       Tag          Charge          X              Y              Z
 ---- ---------------- ---------- -------------- -------------- --------------
    1 O                    8.0000    -0.17255800    -0.12132845     0.00000000
    2 H                    1.0000    -0.17255800     1.74055605     0.00000000
    3 H                    1.0000     1.55302200    -0.76992845     0.00000000

 Vector    1  Occ=1.999989D+00  E=-2.054517D+01  Symmetry=a

 Vector    2  Occ=1.998907D+00  E=-1.339186D+00  Symmetry=a

 Vector    3  Occ=1.982098D+00  E=-7.337270D-01  Symmetry=a

 Vector    4  Occ=1.976777D+00  E=-5.820045D-01  Symmetry=a

 Vector    5  Occ=1.976154D+00  E=-5.231137D-01  Symmetry=a

 Vector    6  Occ=2.461676D-02  E=-2.598867D-02  Symmetry=a

 Vector    7  Occ=2.390066D-02  E=-2.522208D-02  Symmetry=a

 Vector    8  Occ=1.755843D-02  E=-1.602904D-02  Symmetry=a

 Vector    9  Occ=0.000000D+00  E= 2.916470D-01  Symmetry=a

 Vector   10  Occ=0.000000D+00  E= 3.352825D-01  Symmetry=a

 Vector   11  Occ=0.000000D+00  E= 6.091270D-01  Symmetry=a

 Vector   12  Occ=0.000000D+00  E= 6.598734D-01  Symmetry=a

 Vector   13  Occ=0.000000D+00  E= 8.118296D-01  Symmetry=a

 Vector   14  Occ=0.000000D+00  E= 8.423038D-01  Symmetry=a

 Vector   15  Occ=0.000000D+00  E= 9.733006D-01  Symmetry=a

 Vector   16  Occ=0.000000D+00  E= 1.129395D+00  Symmetry=a

 Vector   17  Occ=0.000000D+00  E= 1.165096D+00  Symmetry=a

 Vector   18  Occ=0.000000D+00  E= 1.373505D+00  Symmetry=a

         Total SCF energy =    -76.052398805258

 Vector    2  Occ=2.000000D+00  E=-1.339186D+00

 Vector    3  Occ=2.000000D+00  E=-7.337270D-01

 Vector    4  Occ=2.000000D+00  E=-5.820045D-01

 Vector    5  Occ=2.000000D+00  E=-5.231137D-01

 Vector    6  Occ=0.000000D+00  E=-2.598867D-02

 Vector    7  Occ=0.000000D+00  E=-2.522208D-02

 Vector    8  Occ=0.000000D+00  E=-1.602904D-02

 Vector    9  Occ=0.000000D+00  E= 2.916470D-01

 Vector   10  Occ=0.000000D+00  E= 3.352825D-01

 Vector   11  Occ=0.000000D+00  E= 6.091270D-01

 Vector   12  Occ=0.000000D+00  E= 6.598734D-01

 Vector   13  Occ=0.000000D+00  E= 8.118296D-01

 Vector   14  Occ=0.000000D+00  E= 8.423038D-01

 Vector   15  Occ=0.000000D+00  E= 9.733006D-01

       Multipole analysis of the density wrt the origin
       ------------------------------------------------

     L   x y z        total         open         nuclear
     -   - - -        -----         ----         -------
     0   0 0 0     -0.000000      0.000000     10.000000

     1   1 0 0      0.588230      0.000000     -0.000000
     1   0 1 0      0.411055      0.000000      0.000000
     1   0 0 1      0.000007      0.000000      0.000000

     2   2 0 0     -4.113820      0.000000      2.679864
     2   1 1 0     -0.818271      0.000000     -1.328573
     2   1 0 1     -0.000001      0.000000      0.000000
     2   0 2 0     -3.477928      0.000000      3.740090
     2   0 1 1     -0.000003      0.000000      0.000000

 CCSD total energy / hartree       =       -76.335227132324988
         Total SCF energy =    -76.052398805258
 CCSD total energy / hartree       =       -76.147175067616175
 Total times  cpu:       44.2s     wall:       72.4s
