============================== echo of input deck ==============================
 echo
 start H2O
 title "H2O"

 memory total 24 gb

 geometry units bohr
 symmetry c1
        O  0.00000000  0.00000000  0.00000000
        H  0.00000000  1.917188  0.00000000
        H  1.72558000 -0.64860000  0.00000000
 end

 basis spherical
   * library cc-pVTZ
 end

 mcscf
   active  8
   actelec 10
   multiplicity 1
   maxiter 40
   vectors input h2o.mos
   vectors output h2o.mos
 end

 task mcscf

 scf
   vectors input h2o.mos
   vectors output h2o-trash.mos
   noscf
 end

 tce
   2eorb
   2emet 13
   ccsd
 end

# set tce:print_integrals T
# set tce:qorb
# set tce:qela
# set tce:qelb

# set tce:qducc T
# set tce:nactv
# set tce:nonhf F
# set tce:ducc_model 3

 set tce:printtol 0.02

 task tce

 tce
   2eorb
   2emet 13
   ccsd
   freeze virtual 50
 end

 set tce:printtol 0.02

 task tce
================================================================================

 Output coordinates in a.u. (scale by  1.000000000 to convert to a.u.)

  No.       Tag          Charge          X              Y              Z
 ---- ---------------- ---------- -------------- -------------- --------------
    1 O                    8.0000    -0.17255800    -0.12685880     0.00000000
    2 H                    1.0000    -0.17255800     1.79032920     0.00000000
    3 H                    1.0000     1.55302200    -0.77545880     0.00000000

 Vector    1  Occ=1.999989D+00  E=-2.054739D+01  Symmetry=a

 Vector    2  Occ=1.998855D+00  E=-1.332898D+00  Symmetry=a

 Vector    3  Occ=1.981849D+00  E=-7.262107D-01  Symmetry=a

 Vector    4  Occ=1.976522D+00  E=-5.786291D-01  Symmetry=a

 Vector    5  Occ=1.974297D+00  E=-5.224831D-01  Symmetry=a

 Vector    6  Occ=2.652365D-02  E=-2.746986D-02  Symmetry=a

 Vector    7  Occ=2.418276D-02  E=-2.553061D-02  Symmetry=a

 Vector    8  Occ=1.778197D-02  E=-1.599325D-02  Symmetry=a

 Vector    9  Occ=0.000000D+00  E= 2.986823D-01  Symmetry=a

 Vector   10  Occ=0.000000D+00  E= 3.352530D-01  Symmetry=a

 Vector   11  Occ=0.000000D+00  E= 6.120853D-01  Symmetry=a

 Vector   12  Occ=0.000000D+00  E= 6.643393D-01  Symmetry=a

 Vector   13  Occ=0.000000D+00  E= 8.120320D-01  Symmetry=a

 Vector   14  Occ=0.000000D+00  E= 8.393450D-01  Symmetry=a

 Vector   15  Occ=0.000000D+00  E= 9.732413D-01  Symmetry=a

 Vector   16  Occ=0.000000D+00  E= 1.145847D+00  Symmetry=a

 Vector   17  Occ=0.000000D+00  E= 1.159535D+00  Symmetry=a

 Vector   18  Occ=0.000000D+00  E= 1.341032D+00  Symmetry=a

         Total SCF energy =    -76.049062333151

 Vector    2  Occ=2.000000D+00  E=-1.332898D+00

 Vector    3  Occ=2.000000D+00  E=-7.262107D-01

 Vector    4  Occ=2.000000D+00  E=-5.786291D-01

 Vector    5  Occ=2.000000D+00  E=-5.224831D-01

 Vector    6  Occ=0.000000D+00  E=-2.746986D-02

 Vector    7  Occ=0.000000D+00  E=-2.553061D-02

 Vector    8  Occ=0.000000D+00  E=-1.599325D-02

 Vector    9  Occ=0.000000D+00  E= 2.986823D-01

 Vector   10  Occ=0.000000D+00  E= 3.352530D-01

 Vector   11  Occ=0.000000D+00  E= 6.120853D-01

 Vector   12  Occ=0.000000D+00  E= 6.643393D-01

 Vector   13  Occ=0.000000D+00  E= 8.120320D-01

 Vector   14  Occ=0.000000D+00  E= 8.393450D-01

 Vector   15  Occ=0.000000D+00  E= 9.732413D-01

       Multipole analysis of the density wrt the origin
       ------------------------------------------------

     L   x y z        total         open         nuclear
     -   - - -        -----         ----         -------
     0   0 0 0     -0.000000      0.000000     10.000000

     1   1 0 0      0.585195      0.000000     -0.000000
     1   0 1 0      0.419686      0.000000     -0.000000
     1   0 0 1     -0.000010      0.000000      0.000000

     2   2 0 0     -4.136680      0.000000      2.679864
     2   1 1 0     -0.823660      0.000000     -1.338116
     2   1 0 1     -0.000008      0.000000      0.000000
     2   0 2 0     -3.434076      0.000000      3.935360
     2   0 1 1     -0.000005      0.000000      0.000000

 CCSD total energy / hartree       =       -76.332826714145511
         Total SCF energy =    -76.049062333151
 CCSD total energy / hartree       =       -76.145221741343235
 Total times  cpu:       14.3s     wall:       18.0s
