============================== echo of input deck ==============================
 echo
 start H2O
 title "H2O"

 memory total 24 gb

 geometry units bohr
 symmetry c1
        O  0.00000000  0.00000000  0.00000000
        H  0.00000000  2.3043125  0.00000000
        H  1.72558000 -0.64860000  0.00000000
 end

 basis spherical
   * library cc-pVTZ
 end

 mcscf
   active  8
   actelec 10
   multiplicity 1
   maxiter 40
   vectors input h2o.mos
   vectors output h2o.mos
 end

 task mcscf

 scf
   vectors input h2o.mos
   vectors output h2o-trash.mos
   noscf
 end

 tce
   2eorb
   2emet 13
   ccsd
 end

# set tce:print_integrals T
# set tce:qorb
# set tce:qela
# set tce:qelb

# set tce:qducc T
# set tce:nactv
# set tce:nonhf F
# set tce:ducc_model 3

 set tce:printtol 0.02

 task tce

 tce
   2eorb
   2emet 13
   ccsd
   freeze virtual 50
 end

 set tce:printtol 0.02

 task tce
================================================================================

 Output coordinates in a.u. (scale by  1.000000000 to convert to a.u.)

  No.       Tag          Charge          X              Y              Z
 ---- ---------------- ---------- -------------- -------------- --------------
    1 O                    8.0000    -0.17255800    -0.16557125     0.00000000
    2 H                    1.0000    -0.17255800     2.13874125     0.00000000
    3 H                    1.0000     1.55302200    -0.81417125     0.00000000

 Vector    1  Occ=1.999990D+00  E=-2.056149D+01  Symmetry=a

 Vector    2  Occ=1.998441D+00  E=-1.302288D+00  Symmetry=a

 Vector    3  Occ=1.980531D+00  E=-6.834860D-01  Symmetry=a

 Vector    4  Occ=1.975057D+00  E=-5.591565D-01  Symmetry=a

 Vector    5  Occ=1.954631D+00  E=-5.183540D-01  Symmetry=a

 Vector    6  Occ=4.675523D-02  E=-3.769863D-02  Symmetry=a

 Vector    7  Occ=2.568330D-02  E=-2.591100D-02  Symmetry=a

 Vector    8  Occ=1.891183D-02  E=-1.562971D-02  Symmetry=a

 Vector    9  Occ=0.000000D+00  E= 3.116115D-01  Symmetry=a

 Vector   10  Occ=0.000000D+00  E= 3.360288D-01  Symmetry=a

 Vector   11  Occ=0.000000D+00  E= 6.087531D-01  Symmetry=a

 Vector   12  Occ=0.000000D+00  E= 7.095410D-01  Symmetry=a

 Vector   13  Occ=0.000000D+00  E= 8.183933D-01  Symmetry=a

 Vector   14  Occ=0.000000D+00  E= 8.246635D-01  Symmetry=a

 Vector   15  Occ=0.000000D+00  E= 9.697418D-01  Symmetry=a

 Vector   16  Occ=0.000000D+00  E= 1.096175D+00  Symmetry=a

 Vector   17  Occ=0.000000D+00  E= 1.166038D+00  Symmetry=a

 Vector   18  Occ=0.000000D+00  E= 1.249169D+00  Symmetry=a

         Total SCF energy =    -76.003571125711

 Vector    2  Occ=2.000000D+00  E=-1.302288D+00

 Vector    3  Occ=2.000000D+00  E=-6.834860D-01

 Vector    4  Occ=2.000000D+00  E=-5.591565D-01

 Vector    5  Occ=2.000000D+00  E=-5.183540D-01

 Vector    6  Occ=0.000000D+00  E=-3.769863D-02

 Vector    7  Occ=0.000000D+00  E=-2.591100D-02

 Vector    8  Occ=0.000000D+00  E=-1.562971D-02

 Vector    9  Occ=0.000000D+00  E= 3.116115D-01

 Vector   10  Occ=0.000000D+00  E= 3.360288D-01

 Vector   11  Occ=0.000000D+00  E= 6.087531D-01

 Vector   12  Occ=0.000000D+00  E= 7.095410D-01

 Vector   13  Occ=0.000000D+00  E= 8.183933D-01

 Vector   14  Occ=0.000000D+00  E= 8.246635D-01

 Vector   15  Occ=0.000000D+00  E= 9.697418D-01

       Multipole analysis of the density wrt the origin
       ------------------------------------------------

     L   x y z        total         open         nuclear
     -   - - -        -----         ----         -------
     0   0 0 0     -0.000000      0.000000     10.000000

     1   1 0 0      0.568158      0.000000     -0.000000
     1   0 1 0      0.456988      0.000000      0.000000
     1   0 0 1      0.000000      0.000000      0.000000

     2   2 0 0     -4.279934      0.000000      2.679864
     2   1 1 0     -0.854311      0.000000     -1.404918
     2   1 0 1      0.000000      0.000000      0.000000
     2   0 2 0     -3.121948      0.000000      5.456400
     2   0 1 1     -0.000000      0.000000      0.000000

 CCSD total energy / hartree       =       -76.294705581674975
         Total SCF energy =    -76.003571125711
 CCSD total energy / hartree       =       -76.110109475503847
 Total times  cpu:       14.7s     wall:       18.6s
