============================== echo of input deck ==============================
 echo
 start H2O
 title "H2O"

 memory total 24 gb

 geometry units bohr
 symmetry c1
        O  0.00000000  0.00000000  0.00000000
        H  0.00000000  1.6775395  0.00000000
        H  1.72558000 -0.64860000  0.00000000
 end

 basis spherical
   * library cc-pVDZ
 end

 scf
   vectors input h2o.mos
   vectors output h2o.mos
 end

 tce
   2eorb
   2emet 13
   ccsd
   maxiter 300
 end

# set tce:print_integrals T
# set tce:qorb 8
# set tce:qela 5
# set tce:qelb 5

 set tce:qducc T
 set tce:nactv 3
 set tce:nonhf T
 set tce:ducc_model 6

 set tce:printtol 0.02

 task tce
================================================================================

 Output coordinates in a.u. (scale by  1.000000000 to convert to a.u.)

  No.       Tag          Charge          X              Y              Z
 ---- ---------------- ---------- -------------- -------------- --------------
    1 O                    8.0000    -0.17255800    -0.10289395     0.00000000
    2 H                    1.0000    -0.17255800     1.57464555     0.00000000
    3 H                    1.0000     1.55302200    -0.75149395     0.00000000

         Total SCF energy =    -76.020957086218

 Vector    2  Occ=2.000000D+00  E=-1.347232D+00

 Vector    3  Occ=2.000000D+00  E=-7.253854D-01

 Vector    4  Occ=2.000000D+00  E=-5.584137D-01

 Vector    5  Occ=2.000000D+00  E=-4.931815D-01

 Vector    6  Occ=0.000000D+00  E= 1.898242D-01

 Vector    7  Occ=0.000000D+00  E= 2.590979D-01

 Vector    8  Occ=0.000000D+00  E= 8.004134D-01

 Vector    9  Occ=0.000000D+00  E= 8.848859D-01

 Vector   10  Occ=0.000000D+00  E= 1.156198D+00

 Vector   11  Occ=0.000000D+00  E= 1.199080D+00

 Vector   12  Occ=0.000000D+00  E= 1.249982D+00

 Vector   13  Occ=0.000000D+00  E= 1.466874D+00

 Vector   14  Occ=0.000000D+00  E= 1.493249D+00

 Vector   15  Occ=0.000000D+00  E= 1.715577D+00

       Multipole analysis of the density wrt the origin
       ------------------------------------------------

     L   x y z        total         open         nuclear
     -   - - -        -----         ----         -------
     0   0 0 0      0.000000      0.000000     10.000000

     1   1 0 0      0.645037      0.000000     -0.000000
     1   0 1 0      0.406605      0.000000     -0.000000
     1   0 0 1      0.000000      0.000000      0.000000

     2   2 0 0     -3.893382      0.000000      2.679864
     2   1 1 0     -0.762381      0.000000     -1.296763
     2   1 0 1      0.000000      0.000000      0.000000
     2   0 2 0     -3.502670      0.000000      3.128949
     2   0 1 1     -0.000000      0.000000      0.000000

 CCSD total energy / hartree       =       -76.232036396323295
 Total times  cpu:        5.6s     wall:        5.8s
