============================== echo of input deck ==============================
 echo
 start H2O
 title "H2O"

 memory total 24 gb

 geometry units bohr
 symmetry c1
        O  0.00000000  0.00000000  0.00000000
        H  0.00000000  1.83423275  0.00000000
        H  1.72558000 -0.64860000  0.00000000
 end

 basis spherical
   * library cc-pVDZ
 end

 scf
   vectors input h2o.mos
   vectors output h2o.mos
 end

 tce
   2eorb
   2emet 13
   ccsd
   maxiter 300
 end

# set tce:print_integrals T
# set tce:qorb 8
# set tce:qela 5
# set tce:qelb 5

 set tce:qducc T
 set tce:nactv 3
 set tce:nonhf T
 set tce:ducc_model 6

 set tce:printtol 0.02

 task tce
================================================================================

 Output coordinates in a.u. (scale by  1.000000000 to convert to a.u.)

  No.       Tag          Charge          X              Y              Z
 ---- ---------------- ---------- -------------- -------------- --------------
    1 O                    8.0000    -0.17255800    -0.11856328     0.00000000
    2 H                    1.0000    -0.17255800     1.71566948     0.00000000
    3 H                    1.0000     1.55302200    -0.76716328     0.00000000

         Total SCF energy =    -76.024313663736

 Vector    2  Occ=2.000000D+00  E=-1.324122D+00

 Vector    3  Occ=2.000000D+00  E=-7.015557D-01

 Vector    4  Occ=2.000000D+00  E=-5.513261D-01

 Vector    5  Occ=2.000000D+00  E=-4.896705D-01

 Vector    6  Occ=0.000000D+00  E= 1.836542D-01

 Vector    7  Occ=0.000000D+00  E= 2.533191D-01

 Vector    8  Occ=0.000000D+00  E= 7.998495D-01

 Vector    9  Occ=0.000000D+00  E= 8.120798D-01

 Vector   10  Occ=0.000000D+00  E= 1.162380D+00

 Vector   11  Occ=0.000000D+00  E= 1.201840D+00

 Vector   12  Occ=0.000000D+00  E= 1.247783D+00

 Vector   13  Occ=0.000000D+00  E= 1.454336D+00

 Vector   14  Occ=0.000000D+00  E= 1.497925D+00

 Vector   15  Occ=0.000000D+00  E= 1.702914D+00

       Multipole analysis of the density wrt the origin
       ------------------------------------------------

     L   x y z        total         open         nuclear
     -   - - -        -----         ----         -------
     0   0 0 0      0.000000      0.000000     10.000000

     1   1 0 0      0.639406      0.000000     -0.000000
     1   0 1 0      0.440680      0.000000      0.000000
     1   0 0 1     -0.000000      0.000000      0.000000

     2   2 0 0     -3.957930      0.000000      2.679864
     2   1 1 0     -0.781091      0.000000     -1.323802
     2   1 0 1      0.000000      0.000000      0.000000
     2   0 2 0     -3.381231      0.000000      3.644519
     2   0 1 1     -0.000000      0.000000      0.000000

 CCSD total energy / hartree       =       -76.238220203105413
 Total times  cpu:        6.4s     wall:        6.5s
