============================== echo of input deck ==============================
 echo
 start H2O
 title "H2O"

 memory total 24 gb

 geometry units bohr
 symmetry c1
        O  0.00000000  0.00000000  0.00000000
        H  0.00000000  1.88953625  0.00000000
        H  1.72558000 -0.64860000  0.00000000
 end

 basis spherical
   * library cc-pVDZ
 end

 scf
   vectors input h2o.mos
   vectors output h2o.mos
 end

 tce
   2eorb
   2emet 13
   ccsd
   maxiter 300
 end

# set tce:print_integrals T
# set tce:qorb 8
# set tce:qela 5
# set tce:qelb 5

 set tce:qducc T
 set tce:nactv 3
 set tce:nonhf T
 set tce:ducc_model 6

 set tce:printtol 0.02

 task tce
================================================================================

 Output coordinates in a.u. (scale by  1.000000000 to convert to a.u.)

  No.       Tag          Charge          X              Y              Z
 ---- ---------------- ---------- -------------- -------------- --------------
    1 O                    8.0000    -0.17255800    -0.12409363     0.00000000
    2 H                    1.0000    -0.17255800     1.76544263     0.00000000
    3 H                    1.0000     1.55302200    -0.77269363     0.00000000

         Total SCF energy =    -76.021969039917

 Vector    2  Occ=2.000000D+00  E=-1.317365D+00

 Vector    3  Occ=2.000000D+00  E=-6.936756D-01

 Vector    4  Occ=2.000000D+00  E=-5.486833D-01

 Vector    5  Occ=2.000000D+00  E=-4.886733D-01

 Vector    6  Occ=0.000000D+00  E= 1.807772D-01

 Vector    7  Occ=0.000000D+00  E= 2.511931D-01

 Vector    8  Occ=0.000000D+00  E= 7.836480D-01

 Vector    9  Occ=0.000000D+00  E= 8.058892D-01

 Vector   10  Occ=0.000000D+00  E= 1.163281D+00

 Vector   11  Occ=0.000000D+00  E= 1.201164D+00

 Vector   12  Occ=0.000000D+00  E= 1.248940D+00

 Vector   13  Occ=0.000000D+00  E= 1.451573D+00

 Vector   14  Occ=0.000000D+00  E= 1.500443D+00

 Vector   15  Occ=0.000000D+00  E= 1.699599D+00

       Multipole analysis of the density wrt the origin
       ------------------------------------------------

     L   x y z        total         open         nuclear
     -   - - -        -----         ----         -------
     0   0 0 0      0.000000      0.000000     10.000000

     1   1 0 0      0.637795      0.000000     -0.000000
     1   0 1 0      0.451631      0.000000     -0.000000
     1   0 0 1     -0.000000      0.000000      0.000000

     2   2 0 0     -3.980138      0.000000      2.679864
     2   1 1 0     -0.787321      0.000000     -1.333345
     2   1 0 1      0.000000      0.000000      0.000000
     2   0 2 0     -3.335466      0.000000      3.837037
     2   0 1 1     -0.000000      0.000000      0.000000

 CCSD total energy / hartree       =       -76.236894264584137
 Total times  cpu:        5.7s     wall:        5.8s
