============================== echo of input deck ==============================
 echo
 start H2O
 title "H2O"

 memory total 24 gb

 geometry units bohr
 symmetry c1
        O  0.00000000  0.00000000  0.00000000
        H  0.00000000  1.880319  0.00000000
        H  1.72558000 -0.64860000  0.00000000
 end

 basis spherical
   * library cc-pVDZ
 end

 scf
   vectors input h2o.mos
   vectors output h2o.mos
 end

 tce
   2eorb
   2emet 13
   ccsd
   maxiter 300
 end

# set tce:print_integrals T
# set tce:qorb 8
# set tce:qela 5
# set tce:qelb 5

 set tce:qducc T
 set tce:nactv 3
 set tce:nonhf T
 set tce:ducc_model 6

 set tce:printtol 0.02

 task tce
================================================================================

 Output coordinates in a.u. (scale by  1.000000000 to convert to a.u.)

  No.       Tag          Charge          X              Y              Z
 ---- ---------------- ---------- -------------- -------------- --------------
    1 O                    8.0000    -0.17255800    -0.12317190     0.00000000
    2 H                    1.0000    -0.17255800     1.75714710     0.00000000
    3 H                    1.0000     1.55302200    -0.77177190     0.00000000

         Total SCF energy =    -76.022458351132

 Vector    2  Occ=2.000000D+00  E=-1.318445D+00

 Vector    3  Occ=2.000000D+00  E=-6.949658D-01

 Vector    4  Occ=2.000000D+00  E=-5.491306D-01

 Vector    5  Occ=2.000000D+00  E=-4.888304D-01

 Vector    6  Occ=0.000000D+00  E= 1.812849D-01

 Vector    7  Occ=0.000000D+00  E= 2.515487D-01

 Vector    8  Occ=0.000000D+00  E= 7.870979D-01

 Vector    9  Occ=0.000000D+00  E= 8.060413D-01

 Vector   10  Occ=0.000000D+00  E= 1.163181D+00

 Vector   11  Occ=0.000000D+00  E= 1.201328D+00

 Vector   12  Occ=0.000000D+00  E= 1.248671D+00

 Vector   13  Occ=0.000000D+00  E= 1.451975D+00

 Vector   14  Occ=0.000000D+00  E= 1.500000D+00

 Vector   15  Occ=0.000000D+00  E= 1.700123D+00

       Multipole analysis of the density wrt the origin
       ------------------------------------------------

     L   x y z        total         open         nuclear
     -   - - -        -----         ----         -------
     0   0 0 0      0.000000      0.000000     10.000000

     1   1 0 0      0.638051      0.000000     -0.000000
     1   0 1 0      0.449851      0.000000      0.000000
     1   0 0 1     -0.000000      0.000000      0.000000

     2   2 0 0     -3.976459      0.000000      2.679864
     2   1 1 0     -0.786292      0.000000     -1.331754
     2   1 0 1      0.000000      0.000000      0.000000
     2   0 2 0     -3.343175      0.000000      3.804568
     2   0 1 1     -0.000000      0.000000      0.000000

 CCSD total energy / hartree       =       -76.237212864661188
 Total times  cpu:        5.6s     wall:        5.7s
