============================== echo of input deck ==============================
 echo
 start H2O
 title "H2O"

 memory total 24 gb

 geometry units bohr
 symmetry c1
        O  0.00000000  0.00000000  0.00000000
        H  0.00000000  1.917188  0.00000000
        H  1.72558000 -0.64860000  0.00000000
 end

 basis spherical
   * library cc-pVDZ
 end

 scf
   vectors input h2o.mos
   vectors output h2o.mos
 end

 tce
   2eorb
   2emet 13
   ccsd
   maxiter 300
 end

# set tce:print_integrals T
# set tce:qorb 8
# set tce:qela 5
# set tce:qelb 5

 set tce:qducc T
 set tce:nactv 3
 set tce:nonhf T
 set tce:ducc_model 6

 set tce:printtol 0.02

 task tce
================================================================================

 Output coordinates in a.u. (scale by  1.000000000 to convert to a.u.)

  No.       Tag          Charge          X              Y              Z
 ---- ---------------- ---------- -------------- -------------- --------------
    1 O                    8.0000    -0.17255800    -0.12685880     0.00000000
    2 H                    1.0000    -0.17255800     1.79032920     0.00000000
    3 H                    1.0000     1.55302200    -0.77545880     0.00000000

         Total SCF energy =    -76.020288117686

 Vector    2  Occ=2.000000D+00  E=-1.314235D+00

 Vector    3  Occ=2.000000D+00  E=-6.898628D-01

 Vector    4  Occ=2.000000D+00  E=-5.473241D-01

 Vector    5  Occ=2.000000D+00  E=-4.882231D-01

 Vector    6  Occ=0.000000D+00  E= 1.791834D-01

 Vector    7  Occ=0.000000D+00  E= 2.501257D-01

 Vector    8  Occ=0.000000D+00  E= 7.731805D-01

 Vector    9  Occ=0.000000D+00  E= 8.058624D-01

 Vector   10  Occ=0.000000D+00  E= 1.163459D+00

 Vector   11  Occ=0.000000D+00  E= 1.200560D+00

 Vector   12  Occ=0.000000D+00  E= 1.249926D+00

 Vector   13  Occ=0.000000D+00  E= 1.450508D+00

 Vector   14  Occ=0.000000D+00  E= 1.501826D+00

 Vector   15  Occ=0.000000D+00  E= 1.698082D+00

       Multipole analysis of the density wrt the origin
       ------------------------------------------------

     L   x y z        total         open         nuclear
     -   - - -        -----         ----         -------
     0   0 0 0      0.000000      0.000000     10.000000

     1   1 0 0      0.637058      0.000000     -0.000000
     1   0 1 0      0.456858      0.000000     -0.000000
     1   0 0 1     -0.000000      0.000000      0.000000

     2   2 0 0     -3.991121      0.000000      2.679864
     2   1 1 0     -0.790374      0.000000     -1.338116
     2   1 0 1      0.000000      0.000000      0.000000
     2   0 2 0     -3.312163      0.000000      3.935360
     2   0 1 1     -0.000000      0.000000      0.000000

 CCSD total energy / hartree       =       -76.235727876293780
 Total times  cpu:        5.5s     wall:        5.6s
