============================== echo of input deck ==============================
 echo
 start H2O
 title "H2O"

 memory total 24 gb

 geometry units bohr
 symmetry c1
        O  0.00000000  0.00000000  0.00000000
        H  0.00000000  2.027795  0.00000000
        H  1.72558000 -0.64860000  0.00000000
 end

 basis spherical
   * library cc-pVDZ
 end

 scf
   vectors input h2o.mos
   vectors output h2o.mos
 end

 tce
   2eorb
   2emet 13
   ccsd
   maxiter 300
 end

# set tce:print_integrals T
# set tce:qorb 8
# set tce:qela 5
# set tce:qelb 5

 set tce:qducc T
 set tce:nactv 3
 set tce:nonhf T
 set tce:ducc_model 6

 set tce:printtol 0.02

 task tce
================================================================================

 Output coordinates in a.u. (scale by  1.000000000 to convert to a.u.)

  No.       Tag          Charge          X              Y              Z
 ---- ---------------- ---------- -------------- -------------- --------------
    1 O                    8.0000    -0.17255800    -0.13791950     0.00000000
    2 H                    1.0000    -0.17255800     1.88987550     0.00000000
    3 H                    1.0000     1.55302200    -0.78651950     0.00000000

         Total SCF energy =    -76.010906346698

 Vector    2  Occ=2.000000D+00  E=-1.303230D+00

 Vector    3  Occ=2.000000D+00  E=-6.755494D-01

 Vector    4  Occ=2.000000D+00  E=-5.415929D-01

 Vector    5  Occ=2.000000D+00  E=-4.867366D-01

 Vector    6  Occ=0.000000D+00  E= 1.716944D-01

 Vector    7  Occ=0.000000D+00  E= 2.459108D-01

 Vector    8  Occ=0.000000D+00  E= 7.343846D-01

 Vector    9  Occ=0.000000D+00  E= 8.072770D-01

 Vector   10  Occ=0.000000D+00  E= 1.162489D+00

 Vector   11  Occ=0.000000D+00  E= 1.196754D+00

 Vector   12  Occ=0.000000D+00  E= 1.256466D+00

 Vector   13  Occ=0.000000D+00  E= 1.448151D+00

 Vector   14  Occ=0.000000D+00  E= 1.507962D+00

 Vector   15  Occ=0.000000D+00  E= 1.692611D+00

       Multipole analysis of the density wrt the origin
       ------------------------------------------------

     L   x y z        total         open         nuclear
     -   - - -        -----         ----         -------
     0   0 0 0      0.000000      0.000000     10.000000

     1   1 0 0      0.634542      0.000000     -0.000000
     1   0 1 0      0.475985      0.000000      0.000000
     1   0 0 1     -0.000000      0.000000      0.000000

     2   2 0 0     -4.034251      0.000000      2.679864
     2   1 1 0     -0.802050      0.000000     -1.357202
     2   1 0 1      0.000000      0.000000      0.000000
     2   0 2 0     -3.216840      0.000000      4.342417
     2   0 1 1     -0.000000      0.000000      0.000000

 CCSD total energy / hartree       =       -76.228445301737608
 Total times  cpu:        5.1s     wall:        5.3s
