============================== echo of input deck ==============================
 echo
 start H2O
 title "H2O"

 memory total 24 gb

 geometry units bohr
 symmetry c1
        O  0.00000000  0.00000000  0.00000000
        H  0.00000000  2.064664  0.00000000
        H  1.72558000 -0.64860000  0.00000000
 end

 basis spherical
   * library cc-pVDZ
 end

 scf
   vectors input h2o.mos
   vectors output h2o.mos
 end

 tce
   2eorb
   2emet 13
   ccsd
   maxiter 300
 end

# set tce:print_integrals T
# set tce:qorb 8
# set tce:qela 5
# set tce:qelb 5

 set tce:qducc T
 set tce:nactv 3
 set tce:nonhf T
 set tce:ducc_model 6

 set tce:printtol 0.02

 task tce
================================================================================

 Output coordinates in a.u. (scale by  1.000000000 to convert to a.u.)

  No.       Tag          Charge          X              Y              Z
 ---- ---------------- ---------- -------------- -------------- --------------
    1 O                    8.0000    -0.17255800    -0.14160640     0.00000000
    2 H                    1.0000    -0.17255800     1.92305760     0.00000000
    3 H                    1.0000     1.55302200    -0.79020640     0.00000000

         Total SCF energy =    -76.007029393834

 Vector    2  Occ=2.000000D+00  E=-1.300060D+00

 Vector    3  Occ=2.000000D+00  E=-6.711401D-01

 Vector    4  Occ=2.000000D+00  E=-5.395623D-01

 Vector    5  Occ=2.000000D+00  E=-4.863510D-01

 Vector    6  Occ=0.000000D+00  E= 1.687871D-01

 Vector    7  Occ=0.000000D+00  E= 2.445501D-01

 Vector    8  Occ=0.000000D+00  E= 7.229179D-01

 Vector    9  Occ=0.000000D+00  E= 8.078678D-01

 Vector   10  Occ=0.000000D+00  E= 1.161661D+00

 Vector   11  Occ=0.000000D+00  E= 1.195113D+00

 Vector   12  Occ=0.000000D+00  E= 1.259460D+00

 Vector   13  Occ=0.000000D+00  E= 1.447959D+00

 Vector   14  Occ=0.000000D+00  E= 1.510155D+00

 Vector   15  Occ=0.000000D+00  E= 1.690904D+00

       Multipole analysis of the density wrt the origin
       ------------------------------------------------

     L   x y z        total         open         nuclear
     -   - - -        -----         ----         -------
     0   0 0 0      0.000000      0.000000     10.000000

     1   1 0 0      0.633847      0.000000     -0.000000
     1   0 1 0      0.481682      0.000000      0.000000
     1   0 0 1     -0.000000      0.000000      0.000000

     2   2 0 0     -4.048334      0.000000      2.679864
     2   1 1 0     -0.805738      0.000000     -1.363564
     2   1 0 1      0.000000      0.000000      0.000000
     2   0 2 0     -3.184549      0.000000      4.482996
     2   0 1 1     -0.000000      0.000000      0.000000

 CCSD total energy / hartree       =       -76.225285066667283
 Total times  cpu:        5.4s     wall:        5.5s
