============================== echo of input deck ==============================
 echo
 start H2O
 title "H2O"

 memory total 24 gb

 geometry units bohr
 symmetry c1
        O  0.00000000  0.00000000  0.00000000
        H  0.00000000  2.12918475  0.00000000
        H  1.72558000 -0.64860000  0.00000000
 end

 basis spherical
   * library cc-pVDZ
 end

 scf
   vectors input h2o.mos
   vectors output h2o.mos
 end

 tce
   2eorb
   2emet 13
   ccsd
   maxiter 300
 end

# set tce:print_integrals T
# set tce:qorb 8
# set tce:qela 5
# set tce:qelb 5

 set tce:qducc T
 set tce:nactv 3
 set tce:nonhf T
 set tce:ducc_model 6

 set tce:printtol 0.02

 task tce
================================================================================

 Output coordinates in a.u. (scale by  1.000000000 to convert to a.u.)

  No.       Tag          Charge          X              Y              Z
 ---- ---------------- ---------- -------------- -------------- --------------
    1 O                    8.0000    -0.17255800    -0.14805848     0.00000000
    2 H                    1.0000    -0.17255800     1.98112628     0.00000000
    3 H                    1.0000     1.55302200    -0.79665848     0.00000000

         Total SCF energy =    -75.999576941964

 Vector    2  Occ=2.000000D+00  E=-1.295053D+00

 Vector    3  Occ=2.000000D+00  E=-6.638934D-01

 Vector    4  Occ=2.000000D+00  E=-5.358444D-01

 Vector    5  Occ=2.000000D+00  E=-4.858045D-01

 Vector    6  Occ=0.000000D+00  E= 1.632017D-01

 Vector    7  Occ=0.000000D+00  E= 2.422528D-01

 Vector    8  Occ=0.000000D+00  E= 7.046326D-01

 Vector    9  Occ=0.000000D+00  E= 8.089286D-01

 Vector   10  Occ=0.000000D+00  E= 1.159781D+00

 Vector   11  Occ=0.000000D+00  E= 1.191970D+00

 Vector   12  Occ=0.000000D+00  E= 1.265464D+00

 Vector   13  Occ=0.000000D+00  E= 1.448204D+00

 Vector   14  Occ=0.000000D+00  E= 1.514082D+00

 Vector   15  Occ=0.000000D+00  E= 1.687940D+00

       Multipole analysis of the density wrt the origin
       ------------------------------------------------

     L   x y z        total         open         nuclear
     -   - - -        -----         ----         -------
     0   0 0 0      0.000000      0.000000     10.000000

     1   1 0 0      0.632794      0.000000     -0.000000
     1   0 1 0      0.490776      0.000000      0.000000
     1   0 0 1     -0.000000      0.000000      0.000000

     2   2 0 0     -4.072614      0.000000      2.679864
     2   1 1 0     -0.811921      0.000000     -1.374698
     2   1 0 1      0.000000      0.000000      0.000000
     2   0 2 0     -3.127753      0.000000      4.734897
     2   0 1 1     -0.000000      0.000000      0.000000

 CCSD total energy / hartree       =       -76.219111320350564
 Total times  cpu:        5.7s     wall:        5.8s
