============================== echo of input deck ==============================
 echo
 start H2O
 title "H2O"

 memory total 24 gb

 geometry units bohr
 symmetry c1
        O  0.00000000  0.00000000  0.00000000
        H  0.00000000  2.175271  0.00000000
        H  1.72558000 -0.64860000  0.00000000
 end

 basis spherical
   * library cc-pVDZ
 end

 scf
   vectors input h2o.mos
   vectors output h2o.mos
 end

 tce
   2eorb
   2emet 13
   ccsd
   maxiter 300
 end

# set tce:print_integrals T
# set tce:qorb 8
# set tce:qela 5
# set tce:qelb 5

 set tce:qducc T
 set tce:nactv 3
 set tce:nonhf T
 set tce:ducc_model 6

 set tce:printtol 0.02

 task tce
================================================================================

 Output coordinates in a.u. (scale by  1.000000000 to convert to a.u.)

  No.       Tag          Charge          X              Y              Z
 ---- ---------------- ---------- -------------- -------------- --------------
    1 O                    8.0000    -0.17255800    -0.15266710     0.00000000
    2 H                    1.0000    -0.17255800     2.02260390     0.00000000
    3 H                    1.0000     1.55302200    -0.80126710     0.00000000

         Total SCF energy =    -75.993835942232

 Vector    2  Occ=2.000000D+00  E=-1.291869D+00

 Vector    3  Occ=2.000000D+00  E=-6.590966D-01

 Vector    4  Occ=2.000000D+00  E=-5.330523D-01

 Vector    5  Occ=2.000000D+00  E=-4.855117D-01

 Vector    6  Occ=0.000000D+00  E= 1.588343D-01

 Vector    7  Occ=0.000000D+00  E= 2.406892D-01

 Vector    8  Occ=0.000000D+00  E= 6.929140D-01

 Vector    9  Occ=0.000000D+00  E= 8.096892D-01

 Vector   10  Occ=0.000000D+00  E= 1.158204D+00

 Vector   11  Occ=0.000000D+00  E= 1.189597D+00

 Vector   12  Occ=0.000000D+00  E= 1.270222D+00

 Vector   13  Occ=0.000000D+00  E= 1.448755D+00

 Vector   14  Occ=0.000000D+00  E= 1.516909D+00

 Vector   15  Occ=0.000000D+00  E= 1.685790D+00

       Multipole analysis of the density wrt the origin
       ------------------------------------------------

     L   x y z        total         open         nuclear
     -   - - -        -----         ----         -------
     0   0 0 0     -0.000000      0.000000     10.000000

     1   1 0 0      0.632160      0.000000     -0.000000
     1   0 1 0      0.496561      0.000000      0.000000
     1   0 0 1     -0.000000      0.000000      0.000000

     2   2 0 0     -4.089664      0.000000      2.679864
     2   1 1 0     -0.816115      0.000000     -1.382650
     2   1 0 1      0.000000      0.000000      0.000000
     2   0 2 0     -3.087140      0.000000      4.919413
     2   0 1 1     -0.000000      0.000000      0.000000

 CCSD total energy / hartree       =       -76.214305231753045
 Total times  cpu:        5.8s     wall:        5.9s
