============================== echo of input deck ==============================
 echo
 start H2O
 title "H2O"

 memory total 24 gb

 geometry units bohr
 symmetry c1
        O  0.00000000  0.00000000  0.00000000
        H  0.00000000  2.285878  0.00000000
        H  1.72558000 -0.64860000  0.00000000
 end

 basis spherical
   * library cc-pVDZ
 end

 scf
   vectors input h2o.mos
   vectors output h2o.mos
 end

 tce
   2eorb
   2emet 13
   ccsd
   maxiter 300
 end

# set tce:print_integrals T
# set tce:qorb 8
# set tce:qela 5
# set tce:qelb 5

 set tce:qducc T
 set tce:nactv 3
 set tce:nonhf T
 set tce:ducc_model 6

 set tce:printtol 0.02

 task tce
================================================================================

 Output coordinates in a.u. (scale by  1.000000000 to convert to a.u.)

  No.       Tag          Charge          X              Y              Z
 ---- ---------------- ---------- -------------- -------------- --------------
    1 O                    8.0000    -0.17255800    -0.16372780     0.00000000
    2 H                    1.0000    -0.17255800     2.12215020     0.00000000
    3 H                    1.0000     1.55302200    -0.81232780     0.00000000

         Total SCF energy =    -75.979061944237

 Vector    2  Occ=2.000000D+00  E=-1.285426D+00

 Vector    3  Occ=2.000000D+00  E=-6.489174D-01

 Vector    4  Occ=2.000000D+00  E=-5.258612D-01

 Vector    5  Occ=2.000000D+00  E=-4.851261D-01

 Vector    6  Occ=0.000000D+00  E= 1.471772D-01

 Vector    7  Occ=0.000000D+00  E= 2.372312D-01

 Vector    8  Occ=0.000000D+00  E= 6.690465D-01

 Vector    9  Occ=0.000000D+00  E= 8.114713D-01

 Vector   10  Occ=0.000000D+00  E= 1.154077D+00

 Vector   11  Occ=0.000000D+00  E= 1.183846D+00

 Vector   12  Occ=0.000000D+00  E= 1.282621D+00

 Vector   13  Occ=0.000000D+00  E= 1.451003D+00

 Vector   14  Occ=0.000000D+00  E= 1.523559D+00

 Vector   15  Occ=0.000000D+00  E= 1.680302D+00

       Multipole analysis of the density wrt the origin
       ------------------------------------------------

     L   x y z        total         open         nuclear
     -   - - -        -----         ----         -------
     0   0 0 0     -0.000000      0.000000     10.000000

     1   1 0 0      0.631007      0.000000     -0.000000
     1   0 1 0      0.507920      0.000000     -0.000000
     1   0 0 1     -0.000000      0.000000      0.000000

     2   2 0 0     -4.129541      0.000000      2.679864
     2   1 1 0     -0.825383      0.000000     -1.401737
     2   1 0 1      0.000000      0.000000      0.000000
     2   0 2 0     -2.990380      0.000000      5.377852
     2   0 1 1      0.000000      0.000000      0.000000

 CCSD total energy / hartree       =       -76.201862450166388
 Total times  cpu:        5.7s     wall:        5.9s
