============================== echo of input deck ==============================
 echo
 start H2O
 title "H2O"

 memory total 24 gb

 geometry units bohr
 symmetry c1
        O  0.00000000  0.00000000  0.00000000
        H  0.00000000  3.4103825  0.00000000
        H  1.72558000 -0.64860000  0.00000000
 end

 basis spherical
   * library cc-pVDZ
 end

 scf
   vectors input h2o.mos
   vectors output h2o.mos
 end

 tce
   2eorb
   2emet 13
   ccsd
   maxiter 300
 end

# set tce:print_integrals T
# set tce:qorb 8
# set tce:qela 5
# set tce:qelb 5

 set tce:qducc T
 set tce:nactv 3
 set tce:nonhf T
 set tce:ducc_model 6

 set tce:printtol 0.02

 task tce
================================================================================

 Output coordinates in a.u. (scale by  1.000000000 to convert to a.u.)

  No.       Tag          Charge          X              Y              Z
 ---- ---------------- ---------- -------------- -------------- --------------
    1 O                    8.0000    -0.17255800    -0.27617825     0.00000000
    2 H                    1.0000    -0.17255800     3.13420425     0.00000000
    3 H                    1.0000     1.55302200    -0.92477825     0.00000000

         Total SCF energy =    -75.830122365563

 Vector    2  Occ=2.000000D+00  E=-1.272196D+00

 Vector    3  Occ=2.000000D+00  E=-6.217496D-01

 Vector    4  Occ=2.000000D+00  E=-4.971271D-01

 Vector    5  Occ=2.000000D+00  E=-4.368296D-01

 Vector    6  Occ=0.000000D+00  E= 9.999745D-03

 Vector    7  Occ=0.000000D+00  E= 2.164471D-01

 Vector    8  Occ=0.000000D+00  E= 6.221053D-01

 Vector    9  Occ=0.000000D+00  E= 8.177152D-01

 Vector   10  Occ=0.000000D+00  E= 1.152634D+00

 Vector   11  Occ=0.000000D+00  E= 1.171166D+00

 Vector   12  Occ=0.000000D+00  E= 1.234937D+00

 Vector   13  Occ=0.000000D+00  E= 1.446214D+00

 Vector   14  Occ=0.000000D+00  E= 1.465941D+00

 Vector   15  Occ=0.000000D+00  E= 1.515871D+00

       Multipole analysis of the density wrt the origin
       ------------------------------------------------

     L   x y z        total         open         nuclear
     -   - - -        -----         ----         -------
     0   0 0 0     -0.000000      0.000000     10.000000

     1   1 0 0      0.637654      0.000000     -0.000000
     1   0 1 0      0.444051      0.000000      0.000000
     1   0 0 1     -0.000000      0.000000      0.000000

     2   2 0 0     -4.434832      0.000000      2.679864
     2   1 1 0     -0.852206      0.000000     -1.595779
     2   1 0 1      0.000000      0.000000      0.000000
     2   0 2 0     -2.299698      0.000000     11.288646
     2   0 1 1      0.000000      0.000000      0.000000

 CCSD total energy / hartree       =       -76.089431024408896
 Total times  cpu:        6.1s     wall:        6.2s
