============================== echo of input deck ==============================
 echo
 start H2O
 title "H2O"

 memory total 24 gb

 geometry units bohr
 symmetry c1
        O  0.00000000  0.00000000  0.00000000
        H  0.00000000  4.7007975  0.00000000
        H  1.72558000 -0.64860000  0.00000000
 end

 basis spherical
   * library cc-pVDZ
 end

 scf
   vectors input h2o.mos
   vectors output h2o.mos
 end

 tce
   2eorb
   2emet 13
   ccsd
   maxiter 300
 end

# set tce:print_integrals T
# set tce:qorb 8
# set tce:qela 5
# set tce:qelb 5

 set tce:qducc T
 set tce:nactv 3
 set tce:nonhf T
 set tce:ducc_model 6

 set tce:printtol 0.02

 task tce
================================================================================

 Output coordinates in a.u. (scale by  1.000000000 to convert to a.u.)

  No.       Tag          Charge          X              Y              Z
 ---- ---------------- ---------- -------------- -------------- --------------
    1 O                    8.0000    -0.17255800    -0.40521975     0.00000000
    2 H                    1.0000    -0.17255800     4.29557775     0.00000000
    3 H                    1.0000     1.55302200    -1.05381975     0.00000000

         Total SCF energy =    -75.722954232352

 Vector    2  Occ=2.000000D+00  E=-1.283580D+00

 Vector    3  Occ=2.000000D+00  E=-6.332966D-01

 Vector    4  Occ=2.000000D+00  E=-5.133482D-01

 Vector    5  Occ=2.000000D+00  E=-3.663590D-01

 Vector    6  Occ=0.000000D+00  E=-8.361289D-02

 Vector    7  Occ=0.000000D+00  E= 2.033570D-01

 Vector    8  Occ=0.000000D+00  E= 6.355940D-01

 Vector    9  Occ=0.000000D+00  E= 8.099511D-01

 Vector   10  Occ=0.000000D+00  E= 1.169674D+00

 Vector   11  Occ=0.000000D+00  E= 1.181795D+00

 Vector   12  Occ=0.000000D+00  E= 1.193444D+00

 Vector   13  Occ=0.000000D+00  E= 1.444242D+00

 Vector   14  Occ=0.000000D+00  E= 1.446195D+00

 Vector   15  Occ=0.000000D+00  E= 1.475021D+00

       Multipole analysis of the density wrt the origin
       ------------------------------------------------

     L   x y z        total         open         nuclear
     -   - - -        -----         ----         -------
     0   0 0 0     -0.000000      0.000000     10.000000

     1   1 0 0      0.654747      0.000000     -0.000000
     1   0 1 0      0.273985      0.000000     -0.000000
     1   0 0 1     -0.000000      0.000000      0.000000

     2   2 0 0     -4.579876      0.000000      2.679864
     2   1 1 0     -0.829042      0.000000     -1.818450
     2   1 0 1     -0.000000      0.000000      0.000000
     2   0 2 0     -2.116458      0.000000     20.876149
     2   0 1 1     -0.000000      0.000000      0.000000

 CCSD total energy / hartree       =       -76.045926333718512
 Total times  cpu:        5.9s     wall:        6.0s
