============================== echo of input deck ==============================
 echo
 start H2O
 title "H2O"

 memory total 24 gb

 geometry units bohr
 symmetry c1
        O  0.00000000  0.00000000  0.00000000
        H  0.00000000  4.79297  0.00000000
        H  1.72558000 -0.64860000  0.00000000
 end

 basis spherical
   * library cc-pVDZ
 end

 scf
   vectors input h2o.mos
   vectors output h2o.mos
 end

 tce
   2eorb
   2emet 13
   ccsd
   maxiter 300
 end

# set tce:print_integrals T
# set tce:qorb 8
# set tce:qela 5
# set tce:qelb 5

 set tce:qducc T
 set tce:nactv 3
 set tce:nonhf T
 set tce:ducc_model 6

 set tce:printtol 0.02

 task tce
================================================================================

 Output coordinates in a.u. (scale by  1.000000000 to convert to a.u.)

  No.       Tag          Charge          X              Y              Z
 ---- ---------------- ---------- -------------- -------------- --------------
    1 O                    8.0000    -0.17255800    -0.41443700     0.00000000
    2 H                    1.0000    -0.17255800     4.37853300     0.00000000
    3 H                    1.0000     1.55302200    -1.06303700     0.00000000

         Total SCF energy =    -75.717447229883

 Vector    2  Occ=2.000000D+00  E=-1.284150D+00

 Vector    3  Occ=2.000000D+00  E=-6.339125D-01

 Vector    4  Occ=2.000000D+00  E=-5.140239D-01

 Vector    5  Occ=2.000000D+00  E=-3.627479D-01

 Vector    6  Occ=0.000000D+00  E=-8.811377D-02

 Vector    7  Occ=0.000000D+00  E= 2.027343D-01

 Vector    8  Occ=0.000000D+00  E= 6.338131D-01

 Vector    9  Occ=0.000000D+00  E= 8.094382D-01

 Vector   10  Occ=0.000000D+00  E= 1.171311D+00

 Vector   11  Occ=0.000000D+00  E= 1.181663D+00

 Vector   12  Occ=0.000000D+00  E= 1.197868D+00

 Vector   13  Occ=0.000000D+00  E= 1.443448D+00

 Vector   14  Occ=0.000000D+00  E= 1.444923D+00

 Vector   15  Occ=0.000000D+00  E= 1.473332D+00

       Multipole analysis of the density wrt the origin
       ------------------------------------------------

     L   x y z        total         open         nuclear
     -   - - -        -----         ----         -------
     0   0 0 0     -0.000000      0.000000     10.000000

     1   1 0 0      0.655738      0.000000     -0.000000
     1   0 1 0      0.265198      0.000000      0.000000
     1   0 0 1     -0.000000      0.000000      0.000000

     2   2 0 0     -4.584399      0.000000      2.679864
     2   1 1 0     -0.828213      0.000000     -1.834355
     2   1 0 1     -0.000000      0.000000      0.000000
     2   0 2 0     -2.118019      0.000000     21.675663
     2   0 1 1     -0.000000      0.000000      0.000000

 CCSD total energy / hartree       =       -76.044769954209627
 Total times  cpu:        5.9s     wall:        6.1s
