============================== echo of input deck ==============================
 echo
 start H2O
 title "H2O"

 memory total 24 gb

 geometry units bohr
 symmetry c1
        O  0.00000000  0.00000000  0.00000000
        H  0.00000000  5.4381775  0.00000000
        H  1.72558000 -0.64860000  0.00000000
 end

 basis spherical
   * library cc-pVDZ
 end

 scf
   vectors input h2o.mos
   vectors output h2o.mos
 end

 tce
   2eorb
   2emet 13
   ccsd
   maxiter 300
 end

# set tce:print_integrals T
# set tce:qorb 8
# set tce:qela 5
# set tce:qelb 5

 set tce:qducc T
 set tce:nactv 3
 set tce:nonhf T
 set tce:ducc_model 6

 set tce:printtol 0.02

 task tce
================================================================================

 Output coordinates in a.u. (scale by  1.000000000 to convert to a.u.)

  No.       Tag          Charge          X              Y              Z
 ---- ---------------- ---------- -------------- -------------- --------------
    1 O                    8.0000    -0.17255800    -0.47895775     0.00000000
    2 H                    1.0000    -0.17255800     4.95921975     0.00000000
    3 H                    1.0000     1.55302200    -1.12755775     0.00000000

         Total SCF energy =    -75.684786503104

 Vector    2  Occ=2.000000D+00  E=-1.286570D+00

 Vector    3  Occ=2.000000D+00  E=-6.366183D-01

 Vector    4  Occ=2.000000D+00  E=-5.168375D-01

 Vector    5  Occ=2.000000D+00  E=-3.410510D-01

 Vector    6  Occ=0.000000D+00  E=-1.141716D-01

 Vector    7  Occ=0.000000D+00  E= 1.996055D-01

 Vector    8  Occ=0.000000D+00  E= 6.207860D-01

 Vector    9  Occ=0.000000D+00  E= 8.066397D-01

 Vector   10  Occ=0.000000D+00  E= 1.173699D+00

 Vector   11  Occ=0.000000D+00  E= 1.180545D+00

 Vector   12  Occ=0.000000D+00  E= 1.222495D+00

 Vector   13  Occ=0.000000D+00  E= 1.440383D+00

 Vector   14  Occ=0.000000D+00  E= 1.440456D+00

 Vector   15  Occ=0.000000D+00  E= 1.454104D+00

       Multipole analysis of the density wrt the origin
       ------------------------------------------------

     L   x y z        total         open         nuclear
     -   - - -        -----         ----         -------
     0   0 0 0     -0.000000      0.000000     10.000000

     1   1 0 0      0.661383      0.000000     -0.000000
     1   0 1 0      0.223676      0.000000     -0.000000
     1   0 0 1     -0.000000      0.000000      0.000000

     2   2 0 0     -4.600361      0.000000      2.679864
     2   1 1 0     -0.829136      0.000000     -1.945691
     2   1 0 1     -0.000000      0.000000      0.000000
     2   0 2 0     -2.124563      0.000000     27.700451
     2   0 1 1     -0.000000      0.000000      0.000000

 CCSD total energy / hartree       =       -76.039592530639354
 Total times  cpu:        5.7s     wall:        5.9s
