============================== echo of input deck ==============================
 echo
 start H2O
 title "H2O"

 memory total 24 gb

 geometry units bohr
 symmetry c1
        O  0.00000000  0.00000000  0.00000000
        H  0.00000000  1.55771525  0.00000000
        H  1.72558000 -0.64860000  0.00000000
 end

 basis spherical
   * library cc-pVTZ
 end

 mcscf
   active  8
   actelec 10
   multiplicity 1
   maxiter 40
   vectors input h2o.mos
   vectors output h2o.mos
 end

 task mcscf

 scf
   vectors input h2o.mos
   vectors output h2o-trash.mos
   noscf
 end

 tce
   2eorb
   2emet 13
   ccsd
 end

# set tce:print_integrals T
# set tce:qorb 8
# set tce:qela 5
# set tce:qelb 5

 set tce:qducc T
 set tce:nactv 3
 set tce:nonhf T
 set tce:ducc_model 3

 set tce:printtol 0.02

 task tce
================================================================================

 Output coordinates in a.u. (scale by  1.000000000 to convert to a.u.)

  No.       Tag          Charge          X              Y              Z
 ---- ---------------- ---------- -------------- -------------- --------------
    1 O                    8.0000    -0.17255800    -0.09091153     0.00000000
    2 H                    1.0000    -0.17255800     1.46680373     0.00000000
    3 H                    1.0000     1.55302200    -0.73951153     0.00000000

 Vector    1  Occ=1.999987D+00  E=-2.053081D+01  Symmetry=a

 Vector    2  Occ=1.999151D+00  E=-1.388520D+00  Symmetry=a

 Vector    3  Occ=1.984085D+00  E=-7.795795D-01  Symmetry=a

 Vector    4  Occ=1.983567D+00  E=-5.933757D-01  Symmetry=a

 Vector    5  Occ=1.977847D+00  E=-5.311852D-01  Symmetry=a

 Vector    6  Occ=2.284026D-02  E=-2.560978D-02  Symmetry=a

 Vector    7  Occ=1.630831D-02  E=-1.985657D-02  Symmetry=a

 Vector    8  Occ=1.621421D-02  E=-1.596469D-02  Symmetry=a

 Vector    9  Occ=0.000000D+00  E= 2.751788D-01  Symmetry=a

 Vector   10  Occ=0.000000D+00  E= 3.342979D-01  Symmetry=a

 Vector   11  Occ=0.000000D+00  E= 6.202565D-01  Symmetry=a

 Vector   12  Occ=0.000000D+00  E= 6.535821D-01  Symmetry=a

 Vector   13  Occ=0.000000D+00  E= 8.098117D-01  Symmetry=a

 Vector   14  Occ=0.000000D+00  E= 8.577892D-01  Symmetry=a

 Vector   15  Occ=0.000000D+00  E= 9.740300D-01  Symmetry=a

 Vector   16  Occ=0.000000D+00  E= 1.071887D+00  Symmetry=a

 Vector   17  Occ=0.000000D+00  E= 1.212305D+00  Symmetry=a

 Vector   18  Occ=0.000000D+00  E= 1.368862D+00  Symmetry=a

         Total SCF energy =    -76.035226323800

 Vector    2  Occ=2.000000D+00  E=-1.388520D+00

 Vector    3  Occ=2.000000D+00  E=-7.795795D-01

 Vector    4  Occ=2.000000D+00  E=-5.933757D-01

 Vector    5  Occ=2.000000D+00  E=-5.311852D-01

 Vector    6  Occ=0.000000D+00  E=-2.560978D-02

 Vector    7  Occ=0.000000D+00  E=-1.985657D-02

 Vector    8  Occ=0.000000D+00  E=-1.596469D-02

 Vector    9  Occ=0.000000D+00  E= 2.751788D-01

 Vector   10  Occ=0.000000D+00  E= 3.342979D-01

 Vector   11  Occ=0.000000D+00  E= 6.202565D-01

 Vector   12  Occ=0.000000D+00  E= 6.535821D-01

 Vector   13  Occ=0.000000D+00  E= 8.098117D-01

 Vector   14  Occ=0.000000D+00  E= 8.577892D-01

 Vector   15  Occ=0.000000D+00  E= 9.740300D-01

       Multipole analysis of the density wrt the origin
       ------------------------------------------------

     L   x y z        total         open         nuclear
     -   - - -        -----         ----         -------
     0   0 0 0     -0.000000      0.000000     10.000000

     1   1 0 0      0.607852      0.000000     -0.000000
     1   0 1 0      0.356875      0.000000      0.000000
     1   0 0 1     -0.000000      0.000000      0.000000

     2   2 0 0     -3.978788      0.000000      2.679864
     2   1 1 0     -0.787144      0.000000     -1.276086
     2   1 0 1     -0.000000      0.000000      0.000000
     2   0 2 0     -3.692795      0.000000      2.764510
     2   0 1 1      0.000000      0.000000      0.000000

 CCSD total energy / hartree       =       -76.313415542742931
 Total times  cpu:      107.1s     wall:      125.8s
