============================== echo of input deck ==============================
 echo
 start H2O
 title "H2O"

 memory total 24 gb

 geometry units bohr
 symmetry c1
        O  0.00000000  0.00000000  0.00000000
        H  0.00000000  1.548498  0.00000000
        H  1.72558000 -0.64860000  0.00000000
 end

 basis spherical
   * library cc-pVTZ
 end

 mcscf
   active  8
   actelec 10
   multiplicity 1
   maxiter 40
   vectors input h2o.mos
   vectors output h2o.mos
 end

 task mcscf

 scf
   vectors input h2o.mos
   vectors output h2o-trash.mos
   noscf
 end

 tce
   2eorb
   2emet 13
   ccsd
 end

# set tce:print_integrals T
# set tce:qorb
# set tce:qela
# set tce:qelb

 set tce:qducc T
 set tce:nactv 3
 set tce:nonhf T
 set tce:ducc_model 3

 set tce:printtol 0.02

 task tce
================================================================================

 Output coordinates in a.u. (scale by  1.000000000 to convert to a.u.)

  No.       Tag          Charge          X              Y              Z
 ---- ---------------- ---------- -------------- -------------- --------------
    1 O                    8.0000    -0.17255800    -0.08998980     0.00000000
    2 H                    1.0000    -0.17255800     1.45850820     0.00000000
    3 H                    1.0000     1.55302200    -0.73858980     0.00000000

 Vector    1  Occ=1.999987D+00  E=-2.053028D+01  Symmetry=a

 Vector    2  Occ=1.999157D+00  E=-1.390511D+00  Symmetry=a

 Vector    3  Occ=1.984266D+00  E=-7.810546D-01  Symmetry=a

 Vector    4  Occ=1.983611D+00  E=-5.937316D-01  Symmetry=a

 Vector    5  Occ=1.977876D+00  E=-5.315035D-01  Symmetry=a

 Vector    6  Occ=2.281011D-02  E=-2.559432D-02  Symmetry=a

 Vector    7  Occ=1.617381D-02  E=-1.976729D-02  Symmetry=a

 Vector    8  Occ=1.611834D-02  E=-1.596134D-02  Symmetry=a

 Vector    9  Occ=0.000000D+00  E= 2.756289D-01  Symmetry=a

 Vector   10  Occ=0.000000D+00  E= 3.344716D-01  Symmetry=a

 Vector   11  Occ=0.000000D+00  E= 6.210529D-01  Symmetry=a

 Vector   12  Occ=0.000000D+00  E= 6.534000D-01  Symmetry=a

 Vector   13  Occ=0.000000D+00  E= 8.097242D-01  Symmetry=a

 Vector   14  Occ=0.000000D+00  E= 8.582161D-01  Symmetry=a

 Vector   15  Occ=0.000000D+00  E= 9.740147D-01  Symmetry=a

 Vector   16  Occ=0.000000D+00  E= 1.070975D+00  Symmetry=a

 Vector   17  Occ=0.000000D+00  E= 1.213705D+00  Symmetry=a

 Vector   18  Occ=0.000000D+00  E= 1.368640D+00  Symmetry=a

         Total SCF energy =    -76.033267080219

 Vector    2  Occ=2.000000D+00  E=-1.390511D+00

 Vector    3  Occ=2.000000D+00  E=-7.810546D-01

 Vector    4  Occ=2.000000D+00  E=-5.937316D-01

 Vector    5  Occ=2.000000D+00  E=-5.315035D-01

 Vector    6  Occ=0.000000D+00  E=-2.559432D-02

 Vector    7  Occ=0.000000D+00  E=-1.976729D-02

 Vector    8  Occ=0.000000D+00  E=-1.596134D-02

 Vector    9  Occ=0.000000D+00  E= 2.756289D-01

 Vector   10  Occ=0.000000D+00  E= 3.344716D-01

 Vector   11  Occ=0.000000D+00  E= 6.210529D-01

 Vector   12  Occ=0.000000D+00  E= 6.534000D-01

 Vector   13  Occ=0.000000D+00  E= 8.097242D-01

 Vector   14  Occ=0.000000D+00  E= 8.582161D-01

 Vector   15  Occ=0.000000D+00  E= 9.740147D-01

       Multipole analysis of the density wrt the origin
       ------------------------------------------------

     L   x y z        total         open         nuclear
     -   - - -        -----         ----         -------
     0   0 0 0     -0.000000      0.000000     10.000000

     1   1 0 0      0.608505      0.000000     -0.000000
     1   0 1 0      0.355171      0.000000     -0.000000
     1   0 0 1     -0.000002      0.000000      0.000000

     2   2 0 0     -3.974484      0.000000      2.679864
     2   1 1 0     -0.786207      0.000000     -1.274496
     2   1 0 1     -0.000000      0.000000      0.000000
     2   0 2 0     -3.698381      0.000000      2.737546
     2   0 1 1     -0.000000      0.000000      0.000000

 CCSD total energy / hartree       =       -76.311332837873266
 Total times  cpu:       36.5s     wall:       42.7s
