============================== echo of input deck ==============================
 echo
 start H2O
 title "H2O"

 memory total 24 gb

 geometry units bohr
 symmetry c1
        O  0.00000000  0.00000000  0.00000000
        H  0.00000000  1.5669325  0.00000000
        H  1.72558000 -0.64860000  0.00000000
 end

 basis spherical
   * library cc-pVTZ
 end

 mcscf
   active  8
   actelec 10
   multiplicity 1
   maxiter 40
   vectors input h2o.mos
   vectors output h2o.mos
 end

 task mcscf

 scf
   vectors input h2o.mos
   vectors output h2o-trash.mos
   noscf
 end

 tce
   2eorb
   2emet 13
   ccsd
 end

# set tce:print_integrals T
# set tce:qorb 8
# set tce:qela 5
# set tce:qelb 5

 set tce:qducc T
 set tce:nactv 3
 set tce:nonhf T
 set tce:ducc_model 3

 set tce:printtol 0.02

 task tce
================================================================================

 Output coordinates in a.u. (scale by  1.000000000 to convert to a.u.)

  No.       Tag          Charge          X              Y              Z
 ---- ---------------- ---------- -------------- -------------- --------------
    1 O                    8.0000    -0.17255800    -0.09183325     0.00000000
    2 H                    1.0000    -0.17255800     1.47509925     0.00000000
    3 H                    1.0000     1.55302200    -0.74043325     0.00000000

 Vector    1  Occ=1.999987D+00  E=-2.053128D+01  Symmetry=a

 Vector    2  Occ=1.999144D+00  E=-1.386673D+00  Symmetry=a

 Vector    3  Occ=1.983901D+00  E=-7.781167D-01  Symmetry=a

 Vector    4  Occ=1.983522D+00  E=-5.929951D-01  Symmetry=a

 Vector    5  Occ=1.977817D+00  E=-5.309060D-01  Symmetry=a

 Vector    6  Occ=2.287087D-02  E=-2.560896D-02  Symmetry=a

 Vector    7  Occ=1.650198D-02  E=-2.003086D-02  Symmetry=a

 Vector    8  Occ=1.625501D-02  E=-1.596916D-02  Symmetry=a

 Vector    9  Occ=0.000000D+00  E= 2.761387D-01  Symmetry=a

 Vector   10  Occ=0.000000D+00  E= 3.344081D-01  Symmetry=a

 Vector   11  Occ=0.000000D+00  E= 6.194845D-01  Symmetry=a

 Vector   12  Occ=0.000000D+00  E= 6.534298D-01  Symmetry=a

 Vector   13  Occ=0.000000D+00  E= 8.097747D-01  Symmetry=a

 Vector   14  Occ=0.000000D+00  E= 8.573587D-01  Symmetry=a

 Vector   15  Occ=0.000000D+00  E= 9.740379D-01  Symmetry=a

 Vector   16  Occ=0.000000D+00  E= 1.073812D+00  Symmetry=a

 Vector   17  Occ=0.000000D+00  E= 1.210887D+00  Symmetry=a

 Vector   18  Occ=0.000000D+00  E= 1.369403D+00  Symmetry=a

         Total SCF energy =    -76.037069498211

 Vector    2  Occ=2.000000D+00  E=-1.386673D+00

 Vector    3  Occ=2.000000D+00  E=-7.781167D-01

 Vector    4  Occ=2.000000D+00  E=-5.929951D-01

 Vector    5  Occ=2.000000D+00  E=-5.309060D-01

 Vector    6  Occ=0.000000D+00  E=-2.560896D-02

 Vector    7  Occ=0.000000D+00  E=-2.003086D-02

 Vector    8  Occ=0.000000D+00  E=-1.596916D-02

 Vector    9  Occ=0.000000D+00  E= 2.761387D-01

 Vector   10  Occ=0.000000D+00  E= 3.344081D-01

 Vector   11  Occ=0.000000D+00  E= 6.194845D-01

 Vector   12  Occ=0.000000D+00  E= 6.534298D-01

 Vector   13  Occ=0.000000D+00  E= 8.097747D-01

 Vector   14  Occ=0.000000D+00  E= 8.573587D-01

 Vector   15  Occ=0.000000D+00  E= 9.740379D-01

       Multipole analysis of the density wrt the origin
       ------------------------------------------------

     L   x y z        total         open         nuclear
     -   - - -        -----         ----         -------
     0   0 0 0     -0.000000      0.000000     10.000000

     1   1 0 0      0.607185      0.000000     -0.000000
     1   0 1 0      0.358583      0.000000      0.000000
     1   0 0 1     -0.000000      0.000000      0.000000

     2   2 0 0     -3.983084      0.000000      2.679864
     2   1 1 0     -0.788079      0.000000     -1.277677
     2   1 0 1     -0.000000      0.000000      0.000000
     2   0 2 0     -3.687142      0.000000      2.791626
     2   0 1 1     -0.000000      0.000000      0.000000

 CCSD total energy / hartree       =       -76.315383601790273
 Total times  cpu:      109.6s     wall:      127.1s
