============================== echo of input deck ==============================
 echo
 start H2O
 title "H2O"

 memory total 24 gb

 geometry units bohr
 symmetry c1
        O  0.00000000  0.00000000  0.00000000
        H  0.00000000  2.5623955  0.00000000
        H  1.72558000 -0.64860000  0.00000000
 end

 basis spherical
   * library cc-pVTZ
 end

 mcscf
   active  8
   actelec 10
   multiplicity 1
   maxiter 40
   vectors input h2o.mos
   vectors output h2o.mos
 end

 task mcscf

 scf
   vectors input h2o.mos
   vectors output h2o-trash.mos
   noscf
 end

 tce
   2eorb
   2emet 13
   ccsd
 end

# set tce:print_integrals T
# set tce:qorb 8
# set tce:qela 5
# set tce:qelb 5

 set tce:qducc T
 set tce:nactv 3
 set tce:nonhf T
 set tce:ducc_model 3

 set tce:printtol 0.02

 task tce
================================================================================

 Output coordinates in a.u. (scale by  1.000000000 to convert to a.u.)

  No.       Tag          Charge          X              Y              Z
 ---- ---------------- ---------- -------------- -------------- --------------
    1 O                    8.0000    -0.17255800    -0.19137955     0.00000000
    2 H                    1.0000    -0.17255800     2.37101595     0.00000000
    3 H                    1.0000     1.55302200    -0.83997955     0.00000000

 Vector    1  Occ=1.999990D+00  E=-2.057083D+01  Symmetry=a

 Vector    2  Occ=1.998178D+00  E=-1.293723D+00  Symmetry=a

 Vector    3  Occ=1.980262D+00  E=-6.671604D-01  Symmetry=a

 Vector    4  Occ=1.974328D+00  E=-5.419733D-01  Symmetry=a

 Vector    5  Occ=1.930926D+00  E=-5.195505D-01  Symmetry=a

 Vector    6  Occ=7.080272D-02  E=-4.765903D-02  Symmetry=a

 Vector    7  Occ=2.643541D-02  E=-2.608555D-02  Symmetry=a

 Vector    8  Occ=1.907814D-02  E=-1.516508D-02  Symmetry=a

 Vector    9  Occ=0.000000D+00  E= 3.160995D-01  Symmetry=a

 Vector   10  Occ=0.000000D+00  E= 3.402533D-01  Symmetry=a

 Vector   11  Occ=0.000000D+00  E= 6.067596D-01  Symmetry=a

 Vector   12  Occ=0.000000D+00  E= 7.424095D-01  Symmetry=a

 Vector   13  Occ=0.000000D+00  E= 8.047828D-01  Symmetry=a

 Vector   14  Occ=0.000000D+00  E= 8.377631D-01  Symmetry=a

 Vector   15  Occ=0.000000D+00  E= 9.649210D-01  Symmetry=a

 Vector   16  Occ=0.000000D+00  E= 1.061502D+00  Symmetry=a

 Vector   17  Occ=0.000000D+00  E= 1.100164D+00  Symmetry=a

 Vector   18  Occ=0.000000D+00  E= 1.275215D+00  Symmetry=a

         Total SCF energy =    -75.965319975519

 Vector    2  Occ=2.000000D+00  E=-1.293723D+00

 Vector    3  Occ=2.000000D+00  E=-6.671604D-01

 Vector    4  Occ=2.000000D+00  E=-5.419733D-01

 Vector    5  Occ=2.000000D+00  E=-5.195505D-01

 Vector    6  Occ=0.000000D+00  E=-4.765903D-02

 Vector    7  Occ=0.000000D+00  E=-2.608555D-02

 Vector    8  Occ=0.000000D+00  E=-1.516508D-02

 Vector    9  Occ=0.000000D+00  E= 3.160995D-01

 Vector   10  Occ=0.000000D+00  E= 3.402533D-01

 Vector   11  Occ=0.000000D+00  E= 6.067596D-01

 Vector   12  Occ=0.000000D+00  E= 7.424095D-01

 Vector   13  Occ=0.000000D+00  E= 8.047828D-01

 Vector   14  Occ=0.000000D+00  E= 8.377631D-01

 Vector   15  Occ=0.000000D+00  E= 9.649210D-01

       Multipole analysis of the density wrt the origin
       ------------------------------------------------

     L   x y z        total         open         nuclear
     -   - - -        -----         ----         -------
     0   0 0 0     -0.000000      0.000000     10.000000

     1   1 0 0      0.561327      0.000000     -0.000000
     1   0 1 0      0.448973      0.000000      0.000000
     1   0 0 1      0.000000      0.000000      0.000000

     2   2 0 0     -4.356606      0.000000      2.679864
     2   1 1 0     -0.863492      0.000000     -1.449452
     2   1 0 1     -0.000000      0.000000      0.000000
     2   0 2 0     -2.951956      0.000000      6.620291
     2   0 1 1     -0.000000      0.000000      0.000000

 CCSD total energy / hartree       =       -76.262563430913929
 Total times  cpu:       65.5s     wall:       74.4s
