============================== echo of input deck ==============================
 echo
 start H2O
 title "H2O"

 memory total 24 gb

 geometry units bohr
 symmetry c1
        O  0.00000000  0.00000000  0.00000000
        H  0.00000000  2.58083  0.00000000
        H  1.72558000 -0.64860000  0.00000000
 end

 basis spherical
   * library cc-pVTZ
 end

 mcscf
   active  8
   actelec 10
   multiplicity 1
   maxiter 40
   vectors input h2o.mos
   vectors output h2o.mos
 end

 task mcscf

 scf
   vectors input h2o.mos
   vectors output h2o-trash.mos
   noscf
 end

 tce
   2eorb
   2emet 13
   ccsd
 end

# set tce:print_integrals T
# set tce:qorb
# set tce:qela
# set tce:qelb

 set tce:qducc T
 set tce:nactv 3
 set tce:nonhf T
 set tce:ducc_model 3

 set tce:printtol 0.02

 task tce
================================================================================

 Output coordinates in a.u. (scale by  1.000000000 to convert to a.u.)

  No.       Tag          Charge          X              Y              Z
 ---- ---------------- ---------- -------------- -------------- --------------
    1 O                    8.0000    -0.17255800    -0.19322300     0.00000000
    2 H                    1.0000    -0.17255800     2.38760700     0.00000000
    3 H                    1.0000     1.55302200    -0.84182300     0.00000000

 Vector    1  Occ=1.999990D+00  E=-2.057083D+01  Symmetry=a

 Vector    2  Occ=1.998163D+00  E=-1.292701D+00  Symmetry=a

 Vector    3  Occ=1.980265D+00  E=-6.658698D-01  Symmetry=a

 Vector    4  Occ=1.974286D+00  E=-5.409416D-01  Symmetry=a

 Vector    5  Occ=1.928735D+00  E=-5.190401D-01  Symmetry=a

 Vector    6  Occ=7.301278D-02  E=-4.759243D-02  Symmetry=a

 Vector    7  Occ=2.647932D-02  E=-2.605968D-02  Symmetry=a

 Vector    8  Occ=1.906933D-02  E=-1.519666D-02  Symmetry=a

 Vector    9  Occ=0.000000D+00  E= 3.156565D-01  Symmetry=a

 Vector   10  Occ=0.000000D+00  E= 3.391784D-01  Symmetry=a

 Vector   11  Occ=0.000000D+00  E= 6.052469D-01  Symmetry=a

 Vector   12  Occ=0.000000D+00  E= 7.402840D-01  Symmetry=a

 Vector   13  Occ=0.000000D+00  E= 8.041946D-01  Symmetry=a

 Vector   14  Occ=0.000000D+00  E= 8.389095D-01  Symmetry=a

 Vector   15  Occ=0.000000D+00  E= 9.647349D-01  Symmetry=a

 Vector   16  Occ=0.000000D+00  E= 1.058854D+00  Symmetry=a

 Vector   17  Occ=0.000000D+00  E= 1.091353D+00  Symmetry=a

 Vector   18  Occ=0.000000D+00  E= 1.277291D+00  Symmetry=a

         Total SCF energy =    -75.962561116433

 Vector    2  Occ=2.000000D+00  E=-1.292701D+00

 Vector    3  Occ=2.000000D+00  E=-6.658698D-01

 Vector    4  Occ=2.000000D+00  E=-5.409416D-01

 Vector    5  Occ=2.000000D+00  E=-5.190401D-01

 Vector    6  Occ=0.000000D+00  E=-4.759243D-02

 Vector    7  Occ=0.000000D+00  E=-2.605968D-02

 Vector    8  Occ=0.000000D+00  E=-1.519666D-02

 Vector    9  Occ=0.000000D+00  E= 3.156565D-01

 Vector   10  Occ=0.000000D+00  E= 3.391784D-01

 Vector   11  Occ=0.000000D+00  E= 6.052469D-01

 Vector   12  Occ=0.000000D+00  E= 7.402840D-01

 Vector   13  Occ=0.000000D+00  E= 8.041946D-01

 Vector   14  Occ=0.000000D+00  E= 8.389095D-01

 Vector   15  Occ=0.000000D+00  E= 9.647349D-01

       Multipole analysis of the density wrt the origin
       ------------------------------------------------

     L   x y z        total         open         nuclear
     -   - - -        -----         ----         -------
     0   0 0 0     -0.000000      0.000000     10.000000

     1   1 0 0      0.560964      0.000000     -0.000000
     1   0 1 0      0.447159      0.000000      0.000000
     1   0 0 1      0.000000      0.000000      0.000000

     2   2 0 0     -4.361461      0.000000      2.679864
     2   1 1 0     -0.863683      0.000000     -1.452633
     2   1 0 1     -0.000000      0.000000      0.000000
     2   0 2 0     -2.942289      0.000000      6.708014
     2   0 1 1     -0.000000      0.000000      0.000000

 CCSD total energy / hartree       =       -76.260292404415665
 Total times  cpu:       35.0s     wall:       41.3s
