============================== echo of input deck ==============================
 echo
 start H2O
 title "H2O"

 memory total 24 gb

 geometry units bohr
 symmetry c1
        O  0.00000000  0.00000000  0.00000000
        H  0.00000000  4.977315  0.00000000
        H  1.72558000 -0.64860000  0.00000000
 end

 basis spherical
   * library cc-pVTZ
 end

 mcscf
   active  8
   actelec 10
   multiplicity 1
   maxiter 40
   vectors input h2o.mos
   vectors output h2o.mos
 end

 task mcscf

 scf
   vectors input h2o.mos
   vectors output h2o-trash.mos
   noscf
 end

 tce
   2eorb
   2emet 13
   ccsd
   maxiter 300
 end

# set tce:print_integrals T
# set tce:qorb 8
# set tce:qela 5
# set tce:qelb 5

 set tce:qducc T
 set tce:nactv 3
 set tce:nonhf T
 set tce:ducc_model 3

 set tce:printtol 0.02

 task tce
================================================================================

 Output coordinates in a.u. (scale by  1.000000000 to convert to a.u.)

  No.       Tag          Charge          X              Y              Z
 ---- ---------------- ---------- -------------- -------------- --------------
    1 O                    8.0000    -0.17255800    -0.43287150     0.00000000
    2 H                    1.0000    -0.17255800     4.54444350     0.00000000
    3 H                    1.0000     1.55302200    -1.08147150     0.00000000

 Vector    1  Occ=1.999992D+00  E=-2.061142D+01  Symmetry=a

 Vector    2  Occ=1.998849D+00  E=-1.307501D+00  Symmetry=a

 Vector    3  Occ=1.985385D+00  E=-6.727824D-01  Symmetry=a

 Vector    4  Occ=1.974794D+00  E=-5.498581D-01  Symmetry=a

 Vector    5  Occ=1.240820D+00  E=-3.518280D-01  Symmetry=a

 Vector    6  Occ=7.593411D-01  E=-2.193622D-01  Symmetry=a

 Vector    7  Occ=2.634135D-02  E=-2.612525D-02  Symmetry=a

 Vector    8  Occ=1.447675D-02  E=-1.280730D-02  Symmetry=a

 Vector    9  Occ=0.000000D+00  E= 2.782772D-01  Symmetry=a

 Vector   10  Occ=0.000000D+00  E= 4.142334D-01  Symmetry=a

 Vector   11  Occ=0.000000D+00  E= 6.340402D-01  Symmetry=a

 Vector   12  Occ=0.000000D+00  E= 6.837542D-01  Symmetry=a

 Vector   13  Occ=0.000000D+00  E= 7.849702D-01  Symmetry=a

 Vector   14  Occ=0.000000D+00  E= 8.115118D-01  Symmetry=a

 Vector   15  Occ=0.000000D+00  E= 8.416785D-01  Symmetry=a

 Vector   16  Occ=0.000000D+00  E= 8.915770D-01  Symmetry=a

 Vector   17  Occ=0.000000D+00  E= 9.842869D-01  Symmetry=a

 Vector   18  Occ=0.000000D+00  E= 1.170334D+00  Symmetry=a

         Total SCF energy =    -75.710232235188

 Vector    2  Occ=2.000000D+00  E=-1.307501D+00

 Vector    3  Occ=2.000000D+00  E=-6.727824D-01

 Vector    4  Occ=2.000000D+00  E=-5.498581D-01

 Vector    5  Occ=2.000000D+00  E=-3.518280D-01

 Vector    6  Occ=0.000000D+00  E=-2.193622D-01

 Vector    7  Occ=0.000000D+00  E=-2.612525D-02

 Vector    8  Occ=0.000000D+00  E=-1.280730D-02

 Vector    9  Occ=0.000000D+00  E= 2.782772D-01

 Vector   10  Occ=0.000000D+00  E= 4.142334D-01

 Vector   11  Occ=0.000000D+00  E= 6.340402D-01

 Vector   12  Occ=0.000000D+00  E= 6.837542D-01

 Vector   13  Occ=0.000000D+00  E= 7.849702D-01

 Vector   14  Occ=0.000000D+00  E= 8.115118D-01

 Vector   15  Occ=0.000000D+00  E= 8.416785D-01

       Multipole analysis of the density wrt the origin
       ------------------------------------------------

     L   x y z        total         open         nuclear
     -   - - -        -----         ----         -------
     0   0 0 0     -0.000000      0.000000     10.000000

     1   1 0 0      0.596367      0.000000     -0.000000
     1   0 1 0     -0.108497      0.000000     -0.000000
     1   0 0 1      0.000000      0.000000      0.000000

     2   2 0 0     -4.469493      0.000000      2.679864
     2   1 1 0     -0.650123      0.000000     -1.866166
     2   1 0 1     -0.000000      0.000000      0.000000
     2   0 2 0     -3.710883      0.000000     23.320569
     2   0 1 1     -0.000000      0.000000      0.000000

 CCSD total energy / hartree       =       -76.124037969788901
 Total times  cpu:       35.0s     wall:       40.8s
