============================== echo of input deck ==============================

echo
start H8
title "H8"

memory total 120 gb

geometry units bohr
symmetry c1
H 0 0 0
H 0 0 1.80
H 0 0 3.60
H 0 0 5.40
H 0 0 7.20
H 0 0 9.00
H 0 0 10.80
H 0 0 12.60
end

basis spherical
  * library cc-pVTZ
end

scf
thresh 1e-8
end

tce
  2eorb
  2emet 13
  ccsd
  thresh 1e-8
  maxiter 300
end

set tce:print_integrals T
set tce:qorb 8
set tce:qela 4
set tce:qelb 4

# set tce:qducc T
# set tce:nactv 4
# set tce:nonhf T
# set tce:ducc_model 6

set tce:printtol 0.02

task tce
================================================================================

 Output coordinates in a.u. (scale by  1.000000000 to convert to a.u.)

  No.       Tag          Charge          X              Y              Z
 ---- ---------------- ---------- -------------- -------------- --------------
    1 H                    1.0000     0.00000000     0.00000000    -6.30000000
    2 H                    1.0000     0.00000000     0.00000000    -4.50000000
    3 H                    1.0000     0.00000000     0.00000000    -2.70000000
    4 H                    1.0000     0.00000000     0.00000000    -0.90000000
    5 H                    1.0000     0.00000000     0.00000000     0.90000000
    6 H                    1.0000     0.00000000     0.00000000     2.70000000
    7 H                    1.0000     0.00000000     0.00000000     4.50000000
    8 H                    1.0000     0.00000000     0.00000000     6.30000000

         Total SCF energy =     -4.322283792382

 Vector    1  Occ=2.000000D+00  E=-7.453514D-01

 Vector    2  Occ=2.000000D+00  E=-6.611623D-01

 Vector    3  Occ=2.000000D+00  E=-5.282228D-01

 Vector    4  Occ=2.000000D+00  E=-3.554724D-01

 Vector    5  Occ=0.000000D+00  E= 5.313337D-02

 Vector    6  Occ=0.000000D+00  E= 1.923484D-01

 Vector    7  Occ=0.000000D+00  E= 2.881770D-01

 Vector    8  Occ=0.000000D+00  E= 3.109139D-01

 Vector    9  Occ=0.000000D+00  E= 3.256624D-01

 Vector   10  Occ=0.000000D+00  E= 4.373054D-01

 Vector   11  Occ=0.000000D+00  E= 4.422943D-01

 Vector   12  Occ=0.000000D+00  E= 5.413603D-01

 Vector   13  Occ=0.000000D+00  E= 5.413603D-01

 Vector   14  Occ=0.000000D+00  E= 5.702978D-01

       Multipole analysis of the density wrt the origin
       ------------------------------------------------

     L   x y z        total         open         nuclear
     -   - - -        -----         ----         -------
     0   0 0 0     -0.000000      0.000000      8.000000

     1   1 0 0     -0.000000      0.000000      0.000000
     1   0 1 0     -0.000000      0.000000      0.000000
     1   0 0 1     -0.000000      0.000000      0.000000

     2   2 0 0     -6.472212      0.000000      0.000000
     2   1 1 0     -0.000000      0.000000      0.000000
     2   1 0 1     -0.000000      0.000000      0.000000
     2   0 2 0     -6.472212      0.000000      0.000000
     2   0 1 1      0.000000      0.000000      0.000000

 CCSD total energy / hartree       =        -4.353876218985960
 Total times  cpu:       68.0s     wall:       68.0s
