============================== echo of input deck ==============================

echo
start H8
title "H8"

memory total 120 gb

geometry units bohr
symmetry c1
H 0 0 0
H 0 0 1.81
H 0 0 3.62
H 0 0 5.43
H 0 0 7.24
H 0 0 9.05
H 0 0 10.86
H 0 0 12.67
end

basis spherical
  * library cc-pVTZ
end

scf
thresh 1e-8
end

tce
  2eorb
  2emet 13
  ccsd
  thresh 1e-8
  maxiter 300
end

set tce:print_integrals T
set tce:qorb 8
set tce:qela 4
set tce:qelb 4

# set tce:qducc T
# set tce:nactv 4
# set tce:nonhf T
# set tce:ducc_model 6

set tce:printtol 0.02

task tce
================================================================================

 Output coordinates in a.u. (scale by  1.000000000 to convert to a.u.)

  No.       Tag          Charge          X              Y              Z
 ---- ---------------- ---------- -------------- -------------- --------------
    1 H                    1.0000     0.00000000     0.00000000    -6.33500000
    2 H                    1.0000     0.00000000     0.00000000    -4.52500000
    3 H                    1.0000     0.00000000     0.00000000    -2.71500000
    4 H                    1.0000     0.00000000     0.00000000    -0.90500000
    5 H                    1.0000     0.00000000     0.00000000     0.90500000
    6 H                    1.0000     0.00000000     0.00000000     2.71500000
    7 H                    1.0000     0.00000000     0.00000000     4.52500000
    8 H                    1.0000     0.00000000     0.00000000     6.33500000

         Total SCF energy =     -4.321742884855

 Vector    1  Occ=2.000000D+00  E=-7.422046D-01

 Vector    2  Occ=2.000000D+00  E=-6.588427D-01

 Vector    3  Occ=2.000000D+00  E=-5.271277D-01

 Vector    4  Occ=2.000000D+00  E=-3.559237D-01

 Vector    5  Occ=0.000000D+00  E= 5.098806D-02

 Vector    6  Occ=0.000000D+00  E= 1.910073D-01

 Vector    7  Occ=0.000000D+00  E= 2.877078D-01

 Vector    8  Occ=0.000000D+00  E= 3.111593D-01

 Vector    9  Occ=0.000000D+00  E= 3.269323D-01

 Vector   10  Occ=0.000000D+00  E= 4.346334D-01

 Vector   11  Occ=0.000000D+00  E= 4.428490D-01

 Vector   12  Occ=0.000000D+00  E= 5.418377D-01

 Vector   13  Occ=0.000000D+00  E= 5.418377D-01

 Vector   14  Occ=0.000000D+00  E= 5.704527D-01

       Multipole analysis of the density wrt the origin
       ------------------------------------------------

     L   x y z        total         open         nuclear
     -   - - -        -----         ----         -------
     0   0 0 0     -0.000000      0.000000      8.000000

     1   1 0 0     -0.000000      0.000000      0.000000
     1   0 1 0     -0.000000      0.000000      0.000000
     1   0 0 1      0.000000      0.000000     -0.000000

     2   2 0 0     -6.498768      0.000000      0.000000
     2   1 1 0     -0.000000      0.000000      0.000000
     2   1 0 1      0.000000      0.000000      0.000000
     2   0 2 0     -6.498768      0.000000      0.000000
     2   0 1 1      0.000000      0.000000      0.000000

 CCSD total energy / hartree       =        -4.353715515280676
 Total times  cpu:       65.0s     wall:       65.0s
