============================== echo of input deck ==============================

echo
start H8
title "H8"

memory total 120 gb

geometry units bohr
symmetry c1
H 0 0 0
H 0 0 1.83
H 0 0 3.66
H 0 0 5.49
H 0 0 7.32
H 0 0 9.15
H 0 0 10.98
H 0 0 12.81
end

basis spherical
  * library cc-pVTZ
end

scf
thresh 1e-8
end

tce
  2eorb
  2emet 13
  ccsd
  thresh 1e-8
  maxiter 300
end

set tce:print_integrals T
set tce:qorb 8
set tce:qela 4
set tce:qelb 4

# set tce:qducc T
# set tce:nactv 4
# set tce:nonhf T
# set tce:ducc_model 6

set tce:printtol 0.02

task tce
================================================================================

 Output coordinates in a.u. (scale by  1.000000000 to convert to a.u.)

  No.       Tag          Charge          X              Y              Z
 ---- ---------------- ---------- -------------- -------------- --------------
    1 H                    1.0000     0.00000000     0.00000000    -6.40500000
    2 H                    1.0000     0.00000000     0.00000000    -4.57500000
    3 H                    1.0000     0.00000000     0.00000000    -2.74500000
    4 H                    1.0000     0.00000000     0.00000000    -0.91500000
    5 H                    1.0000     0.00000000     0.00000000     0.91500000
    6 H                    1.0000     0.00000000     0.00000000     2.74500000
    7 H                    1.0000     0.00000000     0.00000000     4.57500000
    8 H                    1.0000     0.00000000     0.00000000     6.40500000

         Total SCF energy =     -4.320340460986

 Vector    1  Occ=2.000000D+00  E=-7.360178D-01

 Vector    2  Occ=2.000000D+00  E=-6.542711D-01

 Vector    3  Occ=2.000000D+00  E=-5.249512D-01

 Vector    4  Occ=2.000000D+00  E=-3.567792D-01

 Vector    5  Occ=0.000000D+00  E= 4.675151D-02

 Vector    6  Occ=0.000000D+00  E= 1.882370D-01

 Vector    7  Occ=0.000000D+00  E= 2.866377D-01

 Vector    8  Occ=0.000000D+00  E= 3.117942D-01

 Vector    9  Occ=0.000000D+00  E= 3.296180D-01

 Vector   10  Occ=0.000000D+00  E= 4.295613D-01

 Vector   11  Occ=0.000000D+00  E= 4.439194D-01

 Vector   12  Occ=0.000000D+00  E= 5.427848D-01

 Vector   13  Occ=0.000000D+00  E= 5.427848D-01

 Vector   14  Occ=0.000000D+00  E= 5.706231D-01

       Multipole analysis of the density wrt the origin
       ------------------------------------------------

     L   x y z        total         open         nuclear
     -   - - -        -----         ----         -------
     0   0 0 0     -0.000000      0.000000      8.000000

     1   1 0 0     -0.000000      0.000000      0.000000
     1   0 1 0      0.000000      0.000000      0.000000
     1   0 0 1      0.000000      0.000000     -0.000000

     2   2 0 0     -6.551770      0.000000      0.000000
     2   1 1 0     -0.000000      0.000000      0.000000
     2   1 0 1      0.000000      0.000000      0.000000
     2   0 2 0     -6.551770      0.000000      0.000000
     2   0 1 1      0.000000      0.000000      0.000000

 CCSD total energy / hartree       =        -4.353097627673009
 Total times  cpu:       64.5s     wall:       64.5s
