============================== echo of input deck ==============================

echo
start H8
title "H8"

memory total 120 gb

geometry units bohr
symmetry c1
H 0 0 0
H 0 0 1.84
H 0 0 3.68
H 0 0 5.52
H 0 0 7.36
H 0 0 9.20
H 0 0 11.04
H 0 0 12.88
end

basis spherical
  * library cc-pVTZ
end

scf
thresh 1e-8
end

tce
  2eorb
  2emet 13
  ccsd
  thresh 1e-8
  maxiter 300
end

set tce:print_integrals T
set tce:qorb 8
set tce:qela 4
set tce:qelb 4

# set tce:qducc T
# set tce:nactv 4
# set tce:nonhf T
# set tce:ducc_model 6

set tce:printtol 0.02

task tce
================================================================================

 Output coordinates in a.u. (scale by  1.000000000 to convert to a.u.)

  No.       Tag          Charge          X              Y              Z
 ---- ---------------- ---------- -------------- -------------- --------------
    1 H                    1.0000     0.00000000     0.00000000    -6.44000000
    2 H                    1.0000     0.00000000     0.00000000    -4.60000000
    3 H                    1.0000     0.00000000     0.00000000    -2.76000000
    4 H                    1.0000     0.00000000     0.00000000    -0.92000000
    5 H                    1.0000     0.00000000     0.00000000     0.92000000
    6 H                    1.0000     0.00000000     0.00000000     2.76000000
    7 H                    1.0000     0.00000000     0.00000000     4.60000000
    8 H                    1.0000     0.00000000     0.00000000     6.44000000

         Total SCF energy =     -4.319485318934

 Vector    1  Occ=2.000000D+00  E=-7.329765D-01

 Vector    2  Occ=2.000000D+00  E=-6.520183D-01

 Vector    3  Occ=2.000000D+00  E=-5.238699D-01

 Vector    4  Occ=2.000000D+00  E=-3.571842D-01

 Vector    5  Occ=0.000000D+00  E= 4.466082D-02

 Vector    6  Occ=0.000000D+00  E= 1.868086D-01

 Vector    7  Occ=0.000000D+00  E= 2.860453D-01

 Vector    8  Occ=0.000000D+00  E= 3.121686D-01

 Vector    9  Occ=0.000000D+00  E= 3.310020D-01

 Vector   10  Occ=0.000000D+00  E= 4.271663D-01

 Vector   11  Occ=0.000000D+00  E= 4.444174D-01

 Vector   12  Occ=0.000000D+00  E= 5.432545D-01

 Vector   13  Occ=0.000000D+00  E= 5.432545D-01

 Vector   14  Occ=0.000000D+00  E= 5.706331D-01

       Multipole analysis of the density wrt the origin
       ------------------------------------------------

     L   x y z        total         open         nuclear
     -   - - -        -----         ----         -------
     0   0 0 0     -0.000000      0.000000      8.000000

     1   1 0 0      0.000000      0.000000      0.000000
     1   0 1 0      0.000000      0.000000      0.000000
     1   0 0 1     -0.000000      0.000000      0.000000

     2   2 0 0     -6.578212      0.000000      0.000000
     2   1 1 0     -0.000000      0.000000      0.000000
     2   1 0 1     -0.000000      0.000000      0.000000
     2   0 2 0     -6.578212      0.000000      0.000000
     2   0 1 1      0.000000      0.000000      0.000000

 CCSD total energy / hartree       =        -4.352646475447406
 Total times  cpu:       63.7s     wall:       63.7s
