============================== echo of input deck ==============================

echo
start H8
title "H8"

memory total 120 gb

geometry units bohr
symmetry c1
H 0 0 0
H 0 0 1.89
H 0 0 3.78
H 0 0 5.67
H 0 0 7.56
H 0 0 9.45
H 0 0 11.34
H 0 0 13.23
end

basis spherical
  * library cc-pVTZ
end

scf
thresh 1e-8
end

tce
  2eorb
  2emet 13
  ccsd
  thresh 1e-8
  maxiter 300
end

set tce:print_integrals T
set tce:qorb 8
set tce:qela 4
set tce:qelb 4

# set tce:qducc T
# set tce:nactv 4
# set tce:nonhf T
# set tce:ducc_model 6

set tce:printtol 0.02

task tce
================================================================================

 Output coordinates in a.u. (scale by  1.000000000 to convert to a.u.)

  No.       Tag          Charge          X              Y              Z
 ---- ---------------- ---------- -------------- -------------- --------------
    1 H                    1.0000     0.00000000     0.00000000    -6.61500000
    2 H                    1.0000     0.00000000     0.00000000    -4.72500000
    3 H                    1.0000     0.00000000     0.00000000    -2.83500000
    4 H                    1.0000     0.00000000     0.00000000    -0.94500000
    5 H                    1.0000     0.00000000     0.00000000     0.94500000
    6 H                    1.0000     0.00000000     0.00000000     2.83500000
    7 H                    1.0000     0.00000000     0.00000000     4.72500000
    8 H                    1.0000     0.00000000     0.00000000     6.61500000

         Total SCF energy =     -4.313789739122

 Vector    1  Occ=2.000000D+00  E=-7.182676D-01

 Vector    2  Occ=2.000000D+00  E=-6.410702D-01

 Vector    3  Occ=2.000000D+00  E=-5.185318D-01

 Vector    4  Occ=2.000000D+00  E=-3.589951D-01

 Vector    5  Occ=0.000000D+00  E= 3.449138D-02

 Vector    6  Occ=0.000000D+00  E= 1.792570D-01

 Vector    7  Occ=0.000000D+00  E= 2.826371D-01

 Vector    8  Occ=0.000000D+00  E= 3.143695D-01

 Vector    9  Occ=0.000000D+00  E= 3.376442D-01

 Vector   10  Occ=0.000000D+00  E= 4.166573D-01

 Vector   11  Occ=0.000000D+00  E= 4.462417D-01

 Vector   12  Occ=0.000000D+00  E= 5.455663D-01

 Vector   13  Occ=0.000000D+00  E= 5.455663D-01

 Vector   14  Occ=0.000000D+00  E= 5.698684D-01

       Multipole analysis of the density wrt the origin
       ------------------------------------------------

     L   x y z        total         open         nuclear
     -   - - -        -----         ----         -------
     0   0 0 0     -0.000000      0.000000      8.000000

     1   1 0 0      0.000000      0.000000      0.000000
     1   0 1 0     -0.000000      0.000000      0.000000
     1   0 0 1     -0.000000      0.000000      0.000000

     2   2 0 0     -6.709753      0.000000      0.000000
     2   1 1 0     -0.000000      0.000000      0.000000
     2   1 0 1      0.000000      0.000000      0.000000
     2   0 2 0     -6.709753      0.000000      0.000000
     2   0 1 1     -0.000000      0.000000      0.000000

 CCSD total energy / hartree       =        -4.349081162636437
 Total times  cpu:       64.6s     wall:       64.6s
