============================== echo of input deck ==============================

echo
start H8
title "H8"

memory total 120 gb

geometry units bohr
symmetry c1
H 0 0 0
H 0 0 1.91
H 0 0 3.82
H 0 0 5.73
H 0 0 7.64
H 0 0 9.55
H 0 0 11.46
H 0 0 13.37
end

basis spherical
  * library cc-pVTZ
end

scf
thresh 1e-8
end

tce
  2eorb
  2emet 13
  ccsd
  thresh 1e-8
  maxiter 300
end

set tce:print_integrals T
set tce:qorb 8
set tce:qela 4
set tce:qelb 4

# set tce:qducc T
# set tce:nactv 4
# set tce:nonhf T
# set tce:ducc_model 6

set tce:printtol 0.02

task tce
================================================================================

 Output coordinates in a.u. (scale by  1.000000000 to convert to a.u.)

  No.       Tag          Charge          X              Y              Z
 ---- ---------------- ---------- -------------- -------------- --------------
    1 H                    1.0000     0.00000000     0.00000000    -6.68500000
    2 H                    1.0000     0.00000000     0.00000000    -4.77500000
    3 H                    1.0000     0.00000000     0.00000000    -2.86500000
    4 H                    1.0000     0.00000000     0.00000000    -0.95500000
    5 H                    1.0000     0.00000000     0.00000000     0.95500000
    6 H                    1.0000     0.00000000     0.00000000     2.86500000
    7 H                    1.0000     0.00000000     0.00000000     4.77500000
    8 H                    1.0000     0.00000000     0.00000000     6.68500000

         Total SCF energy =     -4.310900709555

 Vector    1  Occ=2.000000D+00  E=-7.126052D-01

 Vector    2  Occ=2.000000D+00  E=-6.368324D-01

 Vector    3  Occ=2.000000D+00  E=-5.164284D-01

 Vector    4  Occ=2.000000D+00  E=-3.596254D-01

 Vector    5  Occ=0.000000D+00  E= 3.055872D-02

 Vector    6  Occ=0.000000D+00  E= 1.760590D-01

 Vector    7  Occ=0.000000D+00  E= 2.811014D-01

 Vector    8  Occ=0.000000D+00  E= 3.153242D-01

 Vector    9  Occ=0.000000D+00  E= 3.398781D-01

 Vector   10  Occ=0.000000D+00  E= 4.131475D-01

 Vector   11  Occ=0.000000D+00  E= 4.465623D-01

 Vector   12  Occ=0.000000D+00  E= 5.464740D-01

 Vector   13  Occ=0.000000D+00  E= 5.464740D-01

 Vector   14  Occ=0.000000D+00  E= 5.691752D-01

       Multipole analysis of the density wrt the origin
       ------------------------------------------------

     L   x y z        total         open         nuclear
     -   - - -        -----         ----         -------
     0   0 0 0     -0.000000      0.000000      8.000000

     1   1 0 0      0.000000      0.000000      0.000000
     1   0 1 0      0.000000      0.000000      0.000000
     1   0 0 1     -0.000000      0.000000      0.000000

     2   2 0 0     -6.762029      0.000000      0.000000
     2   1 1 0      0.000000      0.000000      0.000000
     2   1 0 1     -0.000000      0.000000      0.000000
     2   0 2 0     -6.762029      0.000000      0.000000
     2   0 1 1     -0.000000      0.000000      0.000000

 CCSD total energy / hartree       =        -4.347092873670736
 Total times  cpu:       63.6s     wall:       63.6s
