============================== echo of input deck ==============================

echo
start H8
title "H8"

memory total 120 gb

geometry units bohr
symmetry c1
H 0 0 0
H 0 0 1.93
H 0 0 3.86
H 0 0 5.79
H 0 0 7.72
H 0 0 9.65
H 0 0 11.58
H 0 0 13.51
end

basis spherical
  * library cc-pVTZ
end

scf
thresh 1e-8
end

tce
  2eorb
  2emet 13
  ccsd
  thresh 1e-8
  maxiter 300
end

set tce:print_integrals T
set tce:qorb 8
set tce:qela 4
set tce:qelb 4

# set tce:qducc T
# set tce:nactv 4
# set tce:nonhf T
# set tce:ducc_model 6

set tce:printtol 0.02

task tce
================================================================================

 Output coordinates in a.u. (scale by  1.000000000 to convert to a.u.)

  No.       Tag          Charge          X              Y              Z
 ---- ---------------- ---------- -------------- -------------- --------------
    1 H                    1.0000     0.00000000     0.00000000    -6.75500000
    2 H                    1.0000     0.00000000     0.00000000    -4.82500000
    3 H                    1.0000     0.00000000     0.00000000    -2.89500000
    4 H                    1.0000     0.00000000     0.00000000    -0.96500000
    5 H                    1.0000     0.00000000     0.00000000     0.96500000
    6 H                    1.0000     0.00000000     0.00000000     2.89500000
    7 H                    1.0000     0.00000000     0.00000000     4.82500000
    8 H                    1.0000     0.00000000     0.00000000     6.75500000

         Total SCF energy =     -4.307693634296

 Vector    1  Occ=2.000000D+00  E=-7.070628D-01

 Vector    2  Occ=2.000000D+00  E=-6.326716D-01

 Vector    3  Occ=2.000000D+00  E=-5.143431D-01

 Vector    4  Occ=2.000000D+00  E=-3.602057D-01

 Vector    5  Occ=0.000000D+00  E= 2.670423D-02

 Vector    6  Occ=0.000000D+00  E= 1.727704D-01

 Vector    7  Occ=0.000000D+00  E= 2.794790D-01

 Vector    8  Occ=0.000000D+00  E= 3.162881D-01

 Vector    9  Occ=0.000000D+00  E= 3.417310D-01

 Vector   10  Occ=0.000000D+00  E= 4.100275D-01

 Vector   11  Occ=0.000000D+00  E= 4.466125D-01

 Vector   12  Occ=0.000000D+00  E= 5.473722D-01

 Vector   13  Occ=0.000000D+00  E= 5.473722D-01

 Vector   14  Occ=0.000000D+00  E= 5.682664D-01

       Multipole analysis of the density wrt the origin
       ------------------------------------------------

     L   x y z        total         open         nuclear
     -   - - -        -----         ----         -------
     0   0 0 0     -0.000000      0.000000      8.000000

     1   1 0 0      0.000000      0.000000      0.000000
     1   0 1 0      0.000000      0.000000      0.000000
     1   0 0 1      0.000000      0.000000      0.000000

     2   2 0 0     -6.814097      0.000000      0.000000
     2   1 1 0     -0.000000      0.000000      0.000000
     2   1 0 1      0.000000      0.000000      0.000000
     2   0 2 0     -6.814097      0.000000      0.000000
     2   0 1 1     -0.000000      0.000000      0.000000

 CCSD total energy / hartree       =        -4.344812800526481
 Total times  cpu:       63.6s     wall:       63.6s
