============================== echo of input deck ==============================

echo
start H8
title "H8"

memory total 120 gb

geometry units bohr
symmetry c1
H 0 0 0
H 0 0 1.96
H 0 0 3.92
H 0 0 5.88
H 0 0 7.84
H 0 0 9.80
H 0 0 11.76
H 0 0 13.72
end

basis spherical
  * library cc-pVTZ
end

scf
thresh 1e-8
end

tce
  2eorb
  2emet 13
  ccsd
  thresh 1e-8
  maxiter 300
end

set tce:print_integrals T
set tce:qorb 8
set tce:qela 4
set tce:qelb 4

# set tce:qducc T
# set tce:nactv 4
# set tce:nonhf T
# set tce:ducc_model 6

set tce:printtol 0.02

task tce
================================================================================

 Output coordinates in a.u. (scale by  1.000000000 to convert to a.u.)

  No.       Tag          Charge          X              Y              Z
 ---- ---------------- ---------- -------------- -------------- --------------
    1 H                    1.0000     0.00000000     0.00000000    -6.86000000
    2 H                    1.0000     0.00000000     0.00000000    -4.90000000
    3 H                    1.0000     0.00000000     0.00000000    -2.94000000
    4 H                    1.0000     0.00000000     0.00000000    -0.98000000
    5 H                    1.0000     0.00000000     0.00000000     0.98000000
    6 H                    1.0000     0.00000000     0.00000000     2.94000000
    7 H                    1.0000     0.00000000     0.00000000     4.90000000
    8 H                    1.0000     0.00000000     0.00000000     6.86000000

         Total SCF energy =     -4.302328124138

 Vector    1  Occ=2.000000D+00  E=-6.989651D-01

 Vector    2  Occ=2.000000D+00  E=-6.265699D-01

 Vector    3  Occ=2.000000D+00  E=-5.112490D-01

 Vector    4  Occ=2.000000D+00  E=-3.609870D-01

 Vector    5  Occ=0.000000D+00  E= 2.106937D-02

 Vector    6  Occ=0.000000D+00  E= 1.676849D-01

 Vector    7  Occ=0.000000D+00  E= 2.768873D-01

 Vector    8  Occ=0.000000D+00  E= 3.177247D-01

 Vector    9  Occ=0.000000D+00  E= 3.437081D-01

 Vector   10  Occ=0.000000D+00  E= 4.060387D-01

 Vector   11  Occ=0.000000D+00  E= 4.461701D-01

 Vector   12  Occ=0.000000D+00  E= 5.487013D-01

 Vector   13  Occ=0.000000D+00  E= 5.487013D-01

 Vector   14  Occ=0.000000D+00  E= 5.665132D-01

       Multipole analysis of the density wrt the origin
       ------------------------------------------------

     L   x y z        total         open         nuclear
     -   - - -        -----         ----         -------
     0   0 0 0     -0.000000      0.000000      8.000000

     1   1 0 0      0.000000      0.000000      0.000000
     1   0 1 0     -0.000000      0.000000      0.000000
     1   0 0 1     -0.000000      0.000000     -0.000000

     2   2 0 0     -6.891797      0.000000      0.000000
     2   1 1 0      0.000000      0.000000      0.000000
     2   1 0 1      0.000000      0.000000      0.000000
     2   0 2 0     -6.891797      0.000000      0.000000
     2   0 1 1      0.000000      0.000000      0.000000

 CCSD total energy / hartree       =        -4.340885147777873
 Total times  cpu:       66.0s     wall:       66.0s
