============================== echo of input deck ==============================

echo
start H8
title "H8"

memory total 120 gb

geometry units bohr
symmetry c1
H 0 0 0
H 0 0 1.98
H 0 0 3.96
H 0 0 5.94
H 0 0 7.92
H 0 0 9.90
H 0 0 11.88
H 0 0 13.86
end

basis spherical
  * library cc-pVTZ
end

scf
thresh 1e-8
end

tce
  2eorb
  2emet 13
  ccsd
  thresh 1e-8
  maxiter 300
end

set tce:print_integrals T
set tce:qorb 8
set tce:qela 4
set tce:qelb 4

# set tce:qducc T
# set tce:nactv 4
# set tce:nonhf T
# set tce:ducc_model 6

set tce:printtol 0.02

task tce
================================================================================

 Output coordinates in a.u. (scale by  1.000000000 to convert to a.u.)

  No.       Tag          Charge          X              Y              Z
 ---- ---------------- ---------- -------------- -------------- --------------
    1 H                    1.0000     0.00000000     0.00000000    -6.93000000
    2 H                    1.0000     0.00000000     0.00000000    -4.95000000
    3 H                    1.0000     0.00000000     0.00000000    -2.97000000
    4 H                    1.0000     0.00000000     0.00000000    -0.99000000
    5 H                    1.0000     0.00000000     0.00000000     0.99000000
    6 H                    1.0000     0.00000000     0.00000000     2.97000000
    7 H                    1.0000     0.00000000     0.00000000     4.95000000
    8 H                    1.0000     0.00000000     0.00000000     6.93000000

         Total SCF energy =     -4.298407104095

 Vector    1  Occ=2.000000D+00  E=-6.937052D-01

 Vector    2  Occ=2.000000D+00  E=-6.225919D-01

 Vector    3  Occ=2.000000D+00  E=-5.092087D-01

 Vector    4  Occ=2.000000D+00  E=-3.614517D-01

 Vector    5  Occ=0.000000D+00  E= 1.741050D-02

 Vector    6  Occ=0.000000D+00  E= 1.642049D-01

 Vector    7  Occ=0.000000D+00  E= 2.750534D-01

 Vector    8  Occ=0.000000D+00  E= 3.186658D-01

 Vector    9  Occ=0.000000D+00  E= 3.444885D-01

 Vector   10  Occ=0.000000D+00  E= 4.038000D-01

 Vector   11  Occ=0.000000D+00  E= 4.455383D-01

 Vector   12  Occ=0.000000D+00  E= 5.495753D-01

 Vector   13  Occ=0.000000D+00  E= 5.495753D-01

 Vector   14  Occ=0.000000D+00  E= 5.650946D-01

       Multipole analysis of the density wrt the origin
       ------------------------------------------------

     L   x y z        total         open         nuclear
     -   - - -        -----         ----         -------
     0   0 0 0     -0.000000      0.000000      8.000000

     1   1 0 0      0.000000      0.000000      0.000000
     1   0 1 0     -0.000000      0.000000      0.000000
     1   0 0 1     -0.000000      0.000000      0.000000

     2   2 0 0     -6.943324      0.000000      0.000000
     2   1 1 0     -0.000000      0.000000      0.000000
     2   1 0 1      0.000000      0.000000      0.000000
     2   0 2 0     -6.943324      0.000000      0.000000
     2   0 1 1      0.000000      0.000000      0.000000

 CCSD total energy / hartree       =        -4.337953185350106
 Total times  cpu:       68.6s     wall:       68.6s
