============================== echo of input deck ==============================

echo
start H8
title "H8"

memory total 120 gb

geometry units bohr
symmetry c1
H 0 0 0
H 0 0 1.99
H 0 0 3.98
H 0 0 5.97
H 0 0 7.96
H 0 0 9.95
H 0 0 11.94
H 0 0 13.93
end

basis spherical
  * library cc-pVTZ
end

scf
thresh 1e-8
end

tce
  2eorb
  2emet 13
  ccsd
  thresh 1e-8
  maxiter 300
end

set tce:print_integrals T
set tce:qorb 8
set tce:qela 4
set tce:qelb 4

# set tce:qducc T
# set tce:nactv 4
# set tce:nonhf T
# set tce:ducc_model 6

set tce:printtol 0.02

task tce
================================================================================

 Output coordinates in a.u. (scale by  1.000000000 to convert to a.u.)

  No.       Tag          Charge          X              Y              Z
 ---- ---------------- ---------- -------------- -------------- --------------
    1 H                    1.0000     0.00000000     0.00000000    -6.96500000
    2 H                    1.0000     0.00000000     0.00000000    -4.97500000
    3 H                    1.0000     0.00000000     0.00000000    -2.98500000
    4 H                    1.0000     0.00000000     0.00000000    -0.99500000
    5 H                    1.0000     0.00000000     0.00000000     0.99500000
    6 H                    1.0000     0.00000000     0.00000000     2.98500000
    7 H                    1.0000     0.00000000     0.00000000     4.97500000
    8 H                    1.0000     0.00000000     0.00000000     6.96500000

         Total SCF energy =     -4.296349689465

 Vector    1  Occ=2.000000D+00  E=-6.911154D-01

 Vector    2  Occ=2.000000D+00  E=-6.206290D-01

 Vector    3  Occ=2.000000D+00  E=-5.081952D-01

 Vector    4  Occ=2.000000D+00  E=-3.616679D-01

 Vector    5  Occ=0.000000D+00  E= 1.561024D-02

 Vector    6  Occ=0.000000D+00  E= 1.624411D-01

 Vector    7  Occ=0.000000D+00  E= 2.741040D-01

 Vector    8  Occ=0.000000D+00  E= 3.191299D-01

 Vector    9  Occ=0.000000D+00  E= 3.447268D-01

 Vector   10  Occ=0.000000D+00  E= 4.027939D-01

 Vector   11  Occ=0.000000D+00  E= 4.451261D-01

 Vector   12  Occ=0.000000D+00  E= 5.500085D-01

 Vector   13  Occ=0.000000D+00  E= 5.500085D-01

 Vector   14  Occ=0.000000D+00  E= 5.643129D-01

       Multipole analysis of the density wrt the origin
       ------------------------------------------------

     L   x y z        total         open         nuclear
     -   - - -        -----         ----         -------
     0   0 0 0     -0.000000      0.000000      8.000000

     1   1 0 0      0.000000      0.000000      0.000000
     1   0 1 0      0.000000      0.000000      0.000000
     1   0 0 1     -0.000000      0.000000      0.000000

     2   2 0 0     -6.969004      0.000000      0.000000
     2   1 1 0     -0.000000      0.000000      0.000000
     2   1 0 1      0.000000      0.000000      0.000000
     2   0 2 0     -6.969004      0.000000      0.000000
     2   0 1 1     -0.000000      0.000000      0.000000

 CCSD total energy / hartree       =        -4.336399200469165
 Total times  cpu:       62.4s     wall:       62.4s
