============================== echo of input deck ==============================

echo
start H8
title "H8"

memory total 120 gb

geometry units bohr
symmetry c1
H 0 0 0
H 0 0 2.03
H 0 0 4.06
H 0 0 6.09
H 0 0 8.12
H 0 0 10.15
H 0 0 12.18
H 0 0 14.21
end

basis spherical
  * library cc-pVTZ
end

scf
thresh 1e-8
end

tce
  2eorb
  2emet 13
  ccsd
  thresh 1e-8
  maxiter 300
end

set tce:print_integrals T
set tce:qorb 8
set tce:qela 4
set tce:qelb 4

# set tce:qducc T
# set tce:nactv 4
# set tce:nonhf T
# set tce:ducc_model 6

set tce:printtol 0.02

task tce
================================================================================

 Output coordinates in a.u. (scale by  1.000000000 to convert to a.u.)

  No.       Tag          Charge          X              Y              Z
 ---- ---------------- ---------- -------------- -------------- --------------
    1 H                    1.0000     0.00000000     0.00000000    -7.10500000
    2 H                    1.0000     0.00000000     0.00000000    -5.07500000
    3 H                    1.0000     0.00000000     0.00000000    -3.04500000
    4 H                    1.0000     0.00000000     0.00000000    -1.01500000
    5 H                    1.0000     0.00000000     0.00000000     1.01500000
    6 H                    1.0000     0.00000000     0.00000000     3.04500000
    7 H                    1.0000     0.00000000     0.00000000     5.07500000
    8 H                    1.0000     0.00000000     0.00000000     7.10500000

         Total SCF energy =     -4.287519681935

 Vector    1  Occ=2.000000D+00  E=-6.810141D-01

 Vector    2  Occ=2.000000D+00  E=-6.129462D-01

 Vector    3  Occ=2.000000D+00  E=-5.041859D-01

 Vector    4  Occ=2.000000D+00  E=-3.624314D-01

 Vector    5  Occ=0.000000D+00  E= 8.601807D-03

 Vector    6  Occ=0.000000D+00  E= 1.552509D-01

 Vector    7  Occ=0.000000D+00  E= 2.700807D-01

 Vector    8  Occ=0.000000D+00  E= 3.209379D-01

 Vector    9  Occ=0.000000D+00  E= 3.448018D-01

 Vector   10  Occ=0.000000D+00  E= 3.994082D-01

 Vector   11  Occ=0.000000D+00  E= 4.428911D-01

 Vector   12  Occ=0.000000D+00  E= 5.517165D-01

 Vector   13  Occ=0.000000D+00  E= 5.517165D-01

 Vector   14  Occ=0.000000D+00  E= 5.607142D-01

       Multipole analysis of the density wrt the origin
       ------------------------------------------------

     L   x y z        total         open         nuclear
     -   - - -        -----         ----         -------
     0   0 0 0     -0.000000      0.000000      8.000000

     1   1 0 0     -0.000000      0.000000      0.000000
     1   0 1 0      0.000000      0.000000      0.000000
     1   0 0 1     -0.000000      0.000000     -0.000000

     2   2 0 0     -7.071158      0.000000      0.000000
     2   1 1 0      0.000000      0.000000      0.000000
     2   1 0 1      0.000000      0.000000      0.000000
     2   0 2 0     -7.071158      0.000000      0.000000
     2   0 1 1     -0.000000      0.000000      0.000000

 CCSD total energy / hartree       =        -4.329640545159051
 Total times  cpu:       62.0s     wall:       62.0s
