============================== echo of input deck ==============================

echo
start H8
title "H8"

memory total 120 gb

geometry units bohr
symmetry c1
H 0 0 0
H 0 0 2.06
H 0 0 4.12
H 0 0 6.18
H 0 0 8.24
H 0 0 10.30
H 0 0 12.36
H 0 0 14.42
end

basis spherical
  * library cc-pVTZ
end

scf
thresh 1e-8
end

tce
  2eorb
  2emet 13
  ccsd
  thresh 1e-8
  maxiter 300
end

set tce:print_integrals T
set tce:qorb 8
set tce:qela 4
set tce:qelb 4

# set tce:qducc T
# set tce:nactv 4
# set tce:nonhf T
# set tce:ducc_model 6

set tce:printtol 0.02

task tce
================================================================================

 Output coordinates in a.u. (scale by  1.000000000 to convert to a.u.)

  No.       Tag          Charge          X              Y              Z
 ---- ---------------- ---------- -------------- -------------- --------------
    1 H                    1.0000     0.00000000     0.00000000    -7.21000000
    2 H                    1.0000     0.00000000     0.00000000    -5.15000000
    3 H                    1.0000     0.00000000     0.00000000    -3.09000000
    4 H                    1.0000     0.00000000     0.00000000    -1.03000000
    5 H                    1.0000     0.00000000     0.00000000     1.03000000
    6 H                    1.0000     0.00000000     0.00000000     3.09000000
    7 H                    1.0000     0.00000000     0.00000000     5.15000000
    8 H                    1.0000     0.00000000     0.00000000     7.21000000

         Total SCF energy =     -4.280317965183

 Vector    1  Occ=2.000000D+00  E=-6.736977D-01

 Vector    2  Occ=2.000000D+00  E=-6.073547D-01

 Vector    3  Occ=2.000000D+00  E=-5.012254D-01

 Vector    4  Occ=2.000000D+00  E=-3.629038D-01

 Vector    5  Occ=0.000000D+00  E= 3.544897D-03

 Vector    6  Occ=0.000000D+00  E= 1.497444D-01

 Vector    7  Occ=0.000000D+00  E= 2.668156D-01

 Vector    8  Occ=0.000000D+00  E= 3.222428D-01

 Vector    9  Occ=0.000000D+00  E= 3.441243D-01

 Vector   10  Occ=0.000000D+00  E= 3.973992D-01

 Vector   11  Occ=0.000000D+00  E= 4.406770D-01

 Vector   12  Occ=0.000000D+00  E= 5.529708D-01

 Vector   13  Occ=0.000000D+00  E= 5.529708D-01

 Vector   14  Occ=0.000000D+00  E= 5.575231D-01

       Multipole analysis of the density wrt the origin
       ------------------------------------------------

     L   x y z        total         open         nuclear
     -   - - -        -----         ----         -------
     0   0 0 0     -0.000000      0.000000      8.000000

     1   1 0 0      0.000000      0.000000      0.000000
     1   0 1 0     -0.000000      0.000000      0.000000
     1   0 0 1      0.000000      0.000000     -0.000000

     2   2 0 0     -7.147172      0.000000      0.000000
     2   1 1 0     -0.000000      0.000000      0.000000
     2   1 0 1      0.000000      0.000000      0.000000
     2   0 2 0     -7.147172      0.000000      0.000000
     2   0 1 1      0.000000      0.000000      0.000000

 CCSD total energy / hartree       =        -4.324051001135136
 Total times  cpu:       65.4s     wall:       65.4s
