============================== echo of input deck ==============================

echo
start H8
title "H8"

memory total 120 gb

geometry units bohr
symmetry c1
H 0 0 0
H 0 0 2.07
H 0 0 4.14
H 0 0 6.21
H 0 0 8.28
H 0 0 10.35
H 0 0 12.42
H 0 0 14.49
end

basis spherical
  * library cc-pVTZ
end

scf
thresh 1e-8
end

tce
  2eorb
  2emet 13
  ccsd
  thresh 1e-8
  maxiter 300
end

set tce:print_integrals T
set tce:qorb 8
set tce:qela 4
set tce:qelb 4

# set tce:qducc T
# set tce:nactv 4
# set tce:nonhf T
# set tce:ducc_model 6

set tce:printtol 0.02

task tce
================================================================================

 Output coordinates in a.u. (scale by  1.000000000 to convert to a.u.)

  No.       Tag          Charge          X              Y              Z
 ---- ---------------- ---------- -------------- -------------- --------------
    1 H                    1.0000     0.00000000     0.00000000    -7.24500000
    2 H                    1.0000     0.00000000     0.00000000    -5.17500000
    3 H                    1.0000     0.00000000     0.00000000    -3.10500000
    4 H                    1.0000     0.00000000     0.00000000    -1.03500000
    5 H                    1.0000     0.00000000     0.00000000     1.03500000
    6 H                    1.0000     0.00000000     0.00000000     3.10500000
    7 H                    1.0000     0.00000000     0.00000000     5.17500000
    8 H                    1.0000     0.00000000     0.00000000     7.24500000

         Total SCF energy =     -4.277816221110

 Vector    1  Occ=2.000000D+00  E=-6.713063D-01

 Vector    2  Occ=2.000000D+00  E=-6.055222D-01

 Vector    3  Occ=2.000000D+00  E=-5.002474D-01

 Vector    4  Occ=2.000000D+00  E=-3.630434D-01

 Vector    5  Occ=0.000000D+00  E= 1.896605D-03

 Vector    6  Occ=0.000000D+00  E= 1.478924D-01

 Vector    7  Occ=0.000000D+00  E= 2.656781D-01

 Vector    8  Occ=0.000000D+00  E= 3.226684D-01

 Vector    9  Occ=0.000000D+00  E= 3.437941D-01

 Vector   10  Occ=0.000000D+00  E= 3.968056D-01

 Vector   11  Occ=0.000000D+00  E= 4.398525D-01

 Vector   12  Occ=0.000000D+00  E= 5.533837D-01

 Vector   13  Occ=0.000000D+00  E= 5.533837D-01

 Vector   14  Occ=0.000000D+00  E= 5.563643D-01

       Multipole analysis of the density wrt the origin
       ------------------------------------------------

     L   x y z        total         open         nuclear
     -   - - -        -----         ----         -------
     0   0 0 0     -0.000000      0.000000      8.000000

     1   1 0 0      0.000000      0.000000      0.000000
     1   0 1 0     -0.000000      0.000000      0.000000
     1   0 0 1     -0.000000      0.000000     -0.000000

     2   2 0 0     -7.172392      0.000000      0.000000
     2   1 1 0      0.000000      0.000000      0.000000
     2   1 0 1     -0.000000      0.000000      0.000000
     2   0 2 0     -7.172392      0.000000      0.000000
     2   0 1 1     -0.000000      0.000000      0.000000

 CCSD total energy / hartree       =        -4.322097480489279
 Total times  cpu:       64.1s     wall:       64.1s
