============================== echo of input deck ==============================

echo
start H8
title "H8"

memory total 120 gb

geometry units bohr
symmetry c1
H 0 0 0
H 0 0 2.09
H 0 0 4.18
H 0 0 6.27
H 0 0 8.36
H 0 0 10.45
H 0 0 12.54
H 0 0 14.63
end

basis spherical
  * library cc-pVTZ
end

scf
thresh 1e-8
end

tce
  2eorb
  2emet 13
  ccsd
  thresh 1e-8
  maxiter 300
end

set tce:print_integrals T
set tce:qorb 8
set tce:qela 4
set tce:qelb 4

# set tce:qducc T
# set tce:nactv 4
# set tce:nonhf T
# set tce:ducc_model 6

set tce:printtol 0.02

task tce
================================================================================

 Output coordinates in a.u. (scale by  1.000000000 to convert to a.u.)

  No.       Tag          Charge          X              Y              Z
 ---- ---------------- ---------- -------------- -------------- --------------
    1 H                    1.0000     0.00000000     0.00000000    -7.31500000
    2 H                    1.0000     0.00000000     0.00000000    -5.22500000
    3 H                    1.0000     0.00000000     0.00000000    -3.13500000
    4 H                    1.0000     0.00000000     0.00000000    -1.04500000
    5 H                    1.0000     0.00000000     0.00000000     1.04500000
    6 H                    1.0000     0.00000000     0.00000000     3.13500000
    7 H                    1.0000     0.00000000     0.00000000     5.22500000
    8 H                    1.0000     0.00000000     0.00000000     7.31500000

         Total SCF energy =     -4.272670586545

 Vector    1  Occ=2.000000D+00  E=-6.665923D-01

 Vector    2  Occ=2.000000D+00  E=-6.019028D-01

 Vector    3  Occ=2.000000D+00  E=-4.983046D-01

 Vector    4  Occ=2.000000D+00  E=-3.632969D-01

 Vector    5  Occ=0.000000D+00  E=-1.344774D-03

 Vector    6  Occ=0.000000D+00  E= 1.441688D-01

 Vector    7  Occ=0.000000D+00  E= 2.633271D-01

 Vector    8  Occ=0.000000D+00  E= 3.235064D-01

 Vector    9  Occ=0.000000D+00  E= 3.430121D-01

 Vector   10  Occ=0.000000D+00  E= 3.957086D-01

 Vector   11  Occ=0.000000D+00  E= 4.380926D-01

 Vector   12  Occ=0.000000D+00  E= 5.516836D-01

 Vector   13  Occ=0.000000D+00  E= 5.538994D-01

 Vector   14  Occ=0.000000D+00  E= 5.542018D-01

       Multipole analysis of the density wrt the origin
       ------------------------------------------------

     L   x y z        total         open         nuclear
     -   - - -        -----         ----         -------
     0   0 0 0     -0.000000      0.000000      8.000000

     1   1 0 0     -0.000000      0.000000      0.000000
     1   0 1 0      0.000000      0.000000      0.000000
     1   0 0 1      0.000000      0.000000      0.000000

     2   2 0 0     -7.222655      0.000000      0.000000
     2   1 1 0      0.000000      0.000000      0.000000
     2   1 0 1     -0.000000      0.000000      0.000000
     2   0 2 0     -7.222655      0.000000      0.000000
     2   0 1 1      0.000000      0.000000      0.000000

 CCSD total energy / hartree       =        -4.318064147017833
 Total times  cpu:       65.2s     wall:       65.2s
