============================== echo of input deck ==============================

echo
start H8
title "H8"

memory total 120 gb

geometry units bohr
symmetry c1
H 0 0 0
H 0 0 2.11
H 0 0 4.22
H 0 0 6.33
H 0 0 8.44
H 0 0 10.55
H 0 0 12.66
H 0 0 14.77
end

basis spherical
  * library cc-pVTZ
end

scf
thresh 1e-8
end

tce
  2eorb
  2emet 13
  ccsd
  thresh 1e-8
  maxiter 300
end

set tce:print_integrals T
set tce:qorb 8
set tce:qela 4
set tce:qelb 4

# set tce:qducc T
# set tce:nactv 4
# set tce:nonhf T
# set tce:ducc_model 6

set tce:printtol 0.02

task tce
================================================================================

 Output coordinates in a.u. (scale by  1.000000000 to convert to a.u.)

  No.       Tag          Charge          X              Y              Z
 ---- ---------------- ---------- -------------- -------------- --------------
    1 H                    1.0000     0.00000000     0.00000000    -7.38500000
    2 H                    1.0000     0.00000000     0.00000000    -5.27500000
    3 H                    1.0000     0.00000000     0.00000000    -3.16500000
    4 H                    1.0000     0.00000000     0.00000000    -1.05500000
    5 H                    1.0000     0.00000000     0.00000000     1.05500000
    6 H                    1.0000     0.00000000     0.00000000     3.16500000
    7 H                    1.0000     0.00000000     0.00000000     5.27500000
    8 H                    1.0000     0.00000000     0.00000000     7.38500000

         Total SCF energy =     -4.267345534577

 Vector    1  Occ=2.000000D+00  E=-6.619678D-01

 Vector    2  Occ=2.000000D+00  E=-5.983430D-01

 Vector    3  Occ=2.000000D+00  E=-4.963793D-01

 Vector    4  Occ=2.000000D+00  E=-3.635175D-01

 Vector    5  Occ=0.000000D+00  E=-4.513516D-03

 Vector    6  Occ=0.000000D+00  E= 1.404252D-01

 Vector    7  Occ=0.000000D+00  E= 2.608731D-01

 Vector    8  Occ=0.000000D+00  E= 3.243277D-01

 Vector    9  Occ=0.000000D+00  E= 3.421004D-01

 Vector   10  Occ=0.000000D+00  E= 3.947085D-01

 Vector   11  Occ=0.000000D+00  E= 4.362058D-01

 Vector   12  Occ=0.000000D+00  E= 5.462055D-01

 Vector   13  Occ=0.000000D+00  E= 5.512302D-01

 Vector   14  Occ=0.000000D+00  E= 5.550094D-01

       Multipole analysis of the density wrt the origin
       ------------------------------------------------

     L   x y z        total         open         nuclear
     -   - - -        -----         ----         -------
     0   0 0 0     -0.000000      0.000000      8.000000

     1   1 0 0      0.000000      0.000000      0.000000
     1   0 1 0      0.000000      0.000000      0.000000
     1   0 0 1     -0.000000      0.000000      0.000000

     2   2 0 0     -7.272676      0.000000      0.000000
     2   1 1 0      0.000000      0.000000      0.000000
     2   1 0 1     -0.000000      0.000000      0.000000
     2   0 2 0     -7.272676      0.000000      0.000000
     2   0 1 1     -0.000000      0.000000      0.000000

 CCSD total energy / hartree       =        -4.313872040784503
 Total times  cpu:       64.2s     wall:       64.2s
