============================== echo of input deck ==============================

echo
start H8
title "H8"

memory total 120 gb

geometry units bohr
symmetry c1
H 0 0 0
H 0 0 2.13
H 0 0 4.26
H 0 0 6.39
H 0 0 8.52
H 0 0 10.65
H 0 0 12.78
H 0 0 14.91
end

basis spherical
  * library cc-pVTZ
end

scf
thresh 1e-8
end

tce
  2eorb
  2emet 13
  ccsd
  thresh 1e-8
  maxiter 300
end

set tce:print_integrals T
set tce:qorb 8
set tce:qela 4
set tce:qelb 4

# set tce:qducc T
# set tce:nactv 4
# set tce:nonhf T
# set tce:ducc_model 6

set tce:printtol 0.02

task tce
================================================================================

 Output coordinates in a.u. (scale by  1.000000000 to convert to a.u.)

  No.       Tag          Charge          X              Y              Z
 ---- ---------------- ---------- -------------- -------------- --------------
    1 H                    1.0000     0.00000000     0.00000000    -7.45500000
    2 H                    1.0000     0.00000000     0.00000000    -5.32500000
    3 H                    1.0000     0.00000000     0.00000000    -3.19500000
    4 H                    1.0000     0.00000000     0.00000000    -1.06500000
    5 H                    1.0000     0.00000000     0.00000000     1.06500000
    6 H                    1.0000     0.00000000     0.00000000     3.19500000
    7 H                    1.0000     0.00000000     0.00000000     5.32500000
    8 H                    1.0000     0.00000000     0.00000000     7.45500000

         Total SCF energy =     -4.261852632242

 Vector    1  Occ=2.000000D+00  E=-6.574302D-01

 Vector    2  Occ=2.000000D+00  E=-5.948413D-01

 Vector    3  Occ=2.000000D+00  E=-4.944714D-01

 Vector    4  Occ=2.000000D+00  E=-3.637069D-01

 Vector    5  Occ=0.000000D+00  E=-7.610843D-03

 Vector    6  Occ=0.000000D+00  E= 1.366681D-01

 Vector    7  Occ=0.000000D+00  E= 2.583145D-01

 Vector    8  Occ=0.000000D+00  E= 3.251337D-01

 Vector    9  Occ=0.000000D+00  E= 3.410912D-01

 Vector   10  Occ=0.000000D+00  E= 3.937821D-01

 Vector   11  Occ=0.000000D+00  E= 4.342169D-01

 Vector   12  Occ=0.000000D+00  E= 5.410861D-01

 Vector   13  Occ=0.000000D+00  E= 5.483457D-01

 Vector   14  Occ=0.000000D+00  E= 5.558065D-01

       Multipole analysis of the density wrt the origin
       ------------------------------------------------

     L   x y z        total         open         nuclear
     -   - - -        -----         ----         -------
     0   0 0 0     -0.000000      0.000000      8.000000

     1   1 0 0      0.000000      0.000000      0.000000
     1   0 1 0     -0.000000      0.000000      0.000000
     1   0 0 1      0.000000      0.000000      0.000000

     2   2 0 0     -7.322450      0.000000      0.000000
     2   1 1 0     -0.000000      0.000000      0.000000
     2   1 0 1     -0.000000      0.000000      0.000000
     2   0 2 0     -7.322450      0.000000      0.000000
     2   0 1 1     -0.000000      0.000000      0.000000

 CCSD total energy / hartree       =        -4.309532088964604
 Total times  cpu:       65.5s     wall:       65.5s
