============================== echo of input deck ==============================

echo
start H8
title "H8"

memory total 120 gb

geometry units bohr
symmetry c1
H 0 0 0
H 0 0 2.16
H 0 0 4.32
H 0 0 6.48
H 0 0 8.64
H 0 0 10.80
H 0 0 12.96
H 0 0 15.12
end

basis spherical
  * library cc-pVTZ
end

scf
thresh 1e-8
end

tce
  2eorb
  2emet 13
  ccsd
  thresh 1e-8
  maxiter 300
end

set tce:print_integrals T
set tce:qorb 8
set tce:qela 4
set tce:qelb 4

# set tce:qducc T
# set tce:nactv 4
# set tce:nonhf T
# set tce:ducc_model 6

set tce:printtol 0.02

task tce
================================================================================

 Output coordinates in a.u. (scale by  1.000000000 to convert to a.u.)

  No.       Tag          Charge          X              Y              Z
 ---- ---------------- ---------- -------------- -------------- --------------
    1 H                    1.0000     0.00000000     0.00000000    -7.56000000
    2 H                    1.0000     0.00000000     0.00000000    -5.40000000
    3 H                    1.0000     0.00000000     0.00000000    -3.24000000
    4 H                    1.0000     0.00000000     0.00000000    -1.08000000
    5 H                    1.0000     0.00000000     0.00000000     1.08000000
    6 H                    1.0000     0.00000000     0.00000000     3.24000000
    7 H                    1.0000     0.00000000     0.00000000     5.40000000
    8 H                    1.0000     0.00000000     0.00000000     7.56000000

         Total SCF energy =     -4.253322370299

 Vector    1  Occ=2.000000D+00  E=-6.507811D-01

 Vector    2  Occ=2.000000D+00  E=-5.896941D-01

 Vector    3  Occ=2.000000D+00  E=-4.916421D-01

 Vector    4  Occ=2.000000D+00  E=-3.639353D-01

 Vector    5  Occ=0.000000D+00  E=-1.212573D-02

 Vector    6  Occ=0.000000D+00  E= 1.310207D-01

 Vector    7  Occ=0.000000D+00  E= 2.542785D-01

 Vector    8  Occ=0.000000D+00  E= 3.263168D-01

 Vector    9  Occ=0.000000D+00  E= 3.394466D-01

 Vector   10  Occ=0.000000D+00  E= 3.924901D-01

 Vector   11  Occ=0.000000D+00  E= 4.310949D-01

 Vector   12  Occ=0.000000D+00  E= 5.340411D-01

 Vector   13  Occ=0.000000D+00  E= 5.435848D-01

 Vector   14  Occ=0.000000D+00  E= 5.569827D-01

       Multipole analysis of the density wrt the origin
       ------------------------------------------------

     L   x y z        total         open         nuclear
     -   - - -        -----         ----         -------
     0   0 0 0     -0.000000      0.000000      8.000000

     1   1 0 0      0.000000      0.000000      0.000000
     1   0 1 0      0.000000      0.000000      0.000000
     1   0 0 1     -0.000000      0.000000     -0.000000

     2   2 0 0     -7.396639      0.000000      0.000000
     2   1 1 0     -0.000000      0.000000      0.000000
     2   1 0 1      0.000000      0.000000      0.000000
     2   0 2 0     -7.396639      0.000000      0.000000
     2   0 1 1      0.000000      0.000000      0.000000

 CCSD total energy / hartree       =        -4.302767079869002
 Total times  cpu:       62.8s     wall:       62.8s
