============================== echo of input deck ==============================

echo
start H8
title "H8"

memory total 120 gb

geometry units bohr
symmetry c1
H 0 0 0
H 0 0 2.20
H 0 0 4.40
H 0 0 6.60
H 0 0 8.80
H 0 0 11.00
H 0 0 13.20
H 0 0 15.40
end

basis spherical
  * library cc-pVTZ
end

scf
thresh 1e-8
end

tce
  2eorb
  2emet 13
  ccsd
  thresh 1e-8
  maxiter 300
end

set tce:print_integrals T
set tce:qorb 8
set tce:qela 4
set tce:qelb 4

# set tce:qducc T
# set tce:nactv 4
# set tce:nonhf T
# set tce:ducc_model 6

set tce:printtol 0.02

task tce
================================================================================

 Output coordinates in a.u. (scale by  1.000000000 to convert to a.u.)

  No.       Tag          Charge          X              Y              Z
 ---- ---------------- ---------- -------------- -------------- --------------
    1 H                    1.0000     0.00000000     0.00000000    -7.70000000
    2 H                    1.0000     0.00000000     0.00000000    -5.50000000
    3 H                    1.0000     0.00000000     0.00000000    -3.30000000
    4 H                    1.0000     0.00000000     0.00000000    -1.10000000
    5 H                    1.0000     0.00000000     0.00000000     1.10000000
    6 H                    1.0000     0.00000000     0.00000000     3.30000000
    7 H                    1.0000     0.00000000     0.00000000     5.50000000
    8 H                    1.0000     0.00000000     0.00000000     7.70000000

         Total SCF energy =     -4.241458746902

 Vector    1  Occ=2.000000D+00  E=-6.421963D-01

 Vector    2  Occ=2.000000D+00  E=-5.830206D-01

 Vector    3  Occ=2.000000D+00  E=-4.879297D-01

 Vector    4  Occ=2.000000D+00  E=-3.641433D-01

 Vector    5  Occ=0.000000D+00  E=-1.790783D-02

 Vector    6  Occ=0.000000D+00  E= 1.234983D-01

 Vector    7  Occ=0.000000D+00  E= 2.485286D-01

 Vector    8  Occ=0.000000D+00  E= 3.278522D-01

 Vector    9  Occ=0.000000D+00  E= 3.370872D-01

 Vector   10  Occ=0.000000D+00  E= 3.908748D-01

 Vector   11  Occ=0.000000D+00  E= 4.267937D-01

 Vector   12  Occ=0.000000D+00  E= 5.257307D-01

 Vector   13  Occ=0.000000D+00  E= 5.363520D-01

 Vector   14  Occ=0.000000D+00  E= 5.585150D-01

       Multipole analysis of the density wrt the origin
       ------------------------------------------------

     L   x y z        total         open         nuclear
     -   - - -        -----         ----         -------
     0   0 0 0     -0.000000      0.000000      8.000000

     1   1 0 0      0.000000      0.000000      0.000000
     1   0 1 0     -0.000000      0.000000      0.000000
     1   0 0 1      0.000000      0.000000      0.000000

     2   2 0 0     -7.494646      0.000000      0.000000
     2   1 1 0      0.000000      0.000000      0.000000
     2   1 0 1     -0.000000      0.000000      0.000000
     2   0 2 0     -7.494646      0.000000      0.000000
     2   0 1 1      0.000000      0.000000      0.000000

 CCSD total energy / hartree       =        -4.293319021795098
 Total times  cpu:       67.1s     wall:       67.1s
