============================== echo of input deck ==============================

echo
start H8
title "H8"

memory total 120 gb

geometry units bohr
symmetry c1
H 0 0 0
H 0 0 2.21
H 0 0 4.42
H 0 0 6.63
H 0 0 8.84
H 0 0 11.05
H 0 0 13.26
H 0 0 15.47
end

basis spherical
  * library cc-pVTZ
end

scf
thresh 1e-8
end

tce
  2eorb
  2emet 13
  ccsd
  thresh 1e-8
  maxiter 300
end

set tce:print_integrals T
set tce:qorb 8
set tce:qela 4
set tce:qelb 4

# set tce:qducc T
# set tce:nactv 4
# set tce:nonhf T
# set tce:ducc_model 6

set tce:printtol 0.02

task tce
================================================================================

 Output coordinates in a.u. (scale by  1.000000000 to convert to a.u.)

  No.       Tag          Charge          X              Y              Z
 ---- ---------------- ---------- -------------- -------------- --------------
    1 H                    1.0000     0.00000000     0.00000000    -7.73500000
    2 H                    1.0000     0.00000000     0.00000000    -5.52500000
    3 H                    1.0000     0.00000000     0.00000000    -3.31500000
    4 H                    1.0000     0.00000000     0.00000000    -1.10500000
    5 H                    1.0000     0.00000000     0.00000000     1.10500000
    6 H                    1.0000     0.00000000     0.00000000     3.31500000
    7 H                    1.0000     0.00000000     0.00000000     5.52500000
    8 H                    1.0000     0.00000000     0.00000000     7.73500000

         Total SCF energy =     -4.238413233558

 Vector    1  Occ=2.000000D+00  E=-6.400983D-01

 Vector    2  Occ=2.000000D+00  E=-5.813849D-01

 Vector    3  Occ=2.000000D+00  E=-4.870123D-01

 Vector    4  Occ=2.000000D+00  E=-3.641791D-01

 Vector    5  Occ=0.000000D+00  E=-1.931203D-02

 Vector    6  Occ=0.000000D+00  E= 1.216232D-01

 Vector    7  Occ=0.000000D+00  E= 2.470264D-01

 Vector    8  Occ=0.000000D+00  E= 3.282295D-01

 Vector    9  Occ=0.000000D+00  E= 3.364744D-01

 Vector   10  Occ=0.000000D+00  E= 3.904809D-01

 Vector   11  Occ=0.000000D+00  E= 4.257113D-01

 Vector   12  Occ=0.000000D+00  E= 5.238298D-01

 Vector   13  Occ=0.000000D+00  E= 5.343759D-01

 Vector   14  Occ=0.000000D+00  E= 5.588919D-01

       Multipole analysis of the density wrt the origin
       ------------------------------------------------

     L   x y z        total         open         nuclear
     -   - - -        -----         ----         -------
     0   0 0 0     -0.000000      0.000000      8.000000

     1   1 0 0     -0.000000      0.000000      0.000000
     1   0 1 0      0.000000      0.000000      0.000000
     1   0 0 1     -0.000000      0.000000     -0.000000

     2   2 0 0     -7.518980      0.000000      0.000000
     2   1 1 0      0.000000      0.000000      0.000000
     2   1 0 1     -0.000000      0.000000      0.000000
     2   0 2 0     -7.518980      0.000000      0.000000
     2   0 1 1     -0.000000      0.000000      0.000000

 CCSD total energy / hartree       =        -4.290887509876360
 Total times  cpu:       68.9s     wall:       68.9s
