============================== echo of input deck ==============================

echo
start H8
title "H8"

memory total 120 gb

geometry units bohr
symmetry c1
H 0 0 0
H 0 0 2.26
H 0 0 4.52
H 0 0 6.78
H 0 0 9.04
H 0 0 11.30
H 0 0 13.56
H 0 0 15.82
end

basis spherical
  * library cc-pVTZ
end

scf
thresh 1e-8
end

tce
  2eorb
  2emet 13
  ccsd
  thresh 1e-8
  maxiter 300
end

set tce:print_integrals T
set tce:qorb 8
set tce:qela 4
set tce:qelb 4

# set tce:qducc T
# set tce:nactv 4
# set tce:nonhf T
# set tce:ducc_model 6

set tce:printtol 0.02

task tce
================================================================================

 Output coordinates in a.u. (scale by  1.000000000 to convert to a.u.)

  No.       Tag          Charge          X              Y              Z
 ---- ---------------- ---------- -------------- -------------- --------------
    1 H                    1.0000     0.00000000     0.00000000    -7.91000000
    2 H                    1.0000     0.00000000     0.00000000    -5.65000000
    3 H                    1.0000     0.00000000     0.00000000    -3.39000000
    4 H                    1.0000     0.00000000     0.00000000    -1.13000000
    5 H                    1.0000     0.00000000     0.00000000     1.13000000
    6 H                    1.0000     0.00000000     0.00000000     3.39000000
    7 H                    1.0000     0.00000000     0.00000000     5.65000000
    8 H                    1.0000     0.00000000     0.00000000     7.91000000

         Total SCF energy =     -4.222762259338

 Vector    1  Occ=2.000000D+00  E=-6.298843D-01

 Vector    2  Occ=2.000000D+00  E=-5.733946D-01

 Vector    3  Occ=2.000000D+00  E=-4.824882D-01

 Vector    4  Occ=2.000000D+00  E=-3.642684D-01

 Vector    5  Occ=0.000000D+00  E=-2.609377D-02

 Vector    6  Occ=0.000000D+00  E= 1.123092D-01

 Vector    7  Occ=0.000000D+00  E= 2.391436D-01

 Vector    8  Occ=0.000000D+00  E= 3.300830D-01

 Vector    9  Occ=0.000000D+00  E= 3.332806D-01

 Vector   10  Occ=0.000000D+00  E= 3.885201D-01

 Vector   11  Occ=0.000000D+00  E= 4.203705D-01

 Vector   12  Occ=0.000000D+00  E= 5.152587D-01

 Vector   13  Occ=0.000000D+00  E= 5.234699D-01

 Vector   14  Occ=0.000000D+00  E= 5.607401D-01

       Multipole analysis of the density wrt the origin
       ------------------------------------------------

     L   x y z        total         open         nuclear
     -   - - -        -----         ----         -------
     0   0 0 0     -0.000000      0.000000      8.000000

     1   1 0 0     -0.000000      0.000000      0.000000
     1   0 1 0      0.000000      0.000000      0.000000
     1   0 0 1     -0.000000      0.000000     -0.000000

     2   2 0 0     -7.639620      0.000000      0.000000
     2   1 1 0      0.000000      0.000000      0.000000
     2   1 0 1      0.000000      0.000000      0.000000
     2   0 2 0     -7.639620      0.000000      0.000000
     2   0 1 1      0.000000      0.000000      0.000000

 CCSD total energy / hartree       =        -4.278358747463321
 Total times  cpu:       70.6s     wall:       70.6s
