============================== echo of input deck ==============================

echo
start H8
title "H8"

memory total 120 gb

geometry units bohr
symmetry c1
H 0 0 0
H 0 0 2.28
H 0 0 4.56
H 0 0 6.84
H 0 0 9.12
H 0 0 11.40
H 0 0 13.68
H 0 0 15.96
end

basis spherical
  * library cc-pVTZ
end

scf
thresh 1e-8
end

tce
  2eorb
  2emet 13
  ccsd
  thresh 1e-8
  maxiter 300
end

set tce:print_integrals T
set tce:qorb 8
set tce:qela 4
set tce:qelb 4

# set tce:qducc T
# set tce:nactv 4
# set tce:nonhf T
# set tce:ducc_model 6

set tce:printtol 0.02

task tce
================================================================================

 Output coordinates in a.u. (scale by  1.000000000 to convert to a.u.)

  No.       Tag          Charge          X              Y              Z
 ---- ---------------- ---------- -------------- -------------- --------------
    1 H                    1.0000     0.00000000     0.00000000    -7.98000000
    2 H                    1.0000     0.00000000     0.00000000    -5.70000000
    3 H                    1.0000     0.00000000     0.00000000    -3.42000000
    4 H                    1.0000     0.00000000     0.00000000    -1.14000000
    5 H                    1.0000     0.00000000     0.00000000     1.14000000
    6 H                    1.0000     0.00000000     0.00000000     3.42000000
    7 H                    1.0000     0.00000000     0.00000000     5.70000000
    8 H                    1.0000     0.00000000     0.00000000     7.98000000

         Total SCF energy =     -4.216322990680

 Vector    1  Occ=2.000000D+00  E=-6.259226D-01

 Vector    2  Occ=2.000000D+00  E=-5.702835D-01

 Vector    3  Occ=2.000000D+00  E=-4.807078D-01

 Vector    4  Occ=2.000000D+00  E=-3.642649D-01

 Vector    5  Occ=0.000000D+00  E=-2.869804D-02

 Vector    6  Occ=0.000000D+00  E= 1.086211D-01

 Vector    7  Occ=0.000000D+00  E= 2.358260D-01

 Vector    8  Occ=0.000000D+00  E= 3.308111D-01

 Vector    9  Occ=0.000000D+00  E= 3.319341D-01

 Vector   10  Occ=0.000000D+00  E= 3.877252D-01

 Vector   11  Occ=0.000000D+00  E= 4.183030D-01

 Vector   12  Occ=0.000000D+00  E= 5.122201D-01

 Vector   13  Occ=0.000000D+00  E= 5.186560D-01

 Vector   14  Occ=0.000000D+00  E= 5.614636D-01

       Multipole analysis of the density wrt the origin
       ------------------------------------------------

     L   x y z        total         open         nuclear
     -   - - -        -----         ----         -------
     0   0 0 0     -0.000000      0.000000      8.000000

     1   1 0 0     -0.000000      0.000000      0.000000
     1   0 1 0      0.000000      0.000000      0.000000
     1   0 0 1     -0.000000      0.000000     -0.000000

     2   2 0 0     -7.687381      0.000000      0.000000
     2   1 1 0     -0.000000      0.000000      0.000000
     2   1 0 1     -0.000000      0.000000      0.000000
     2   0 2 0     -7.687381      0.000000      0.000000
     2   0 1 1      0.000000      0.000000      0.000000

 CCSD total energy / hartree       =        -4.273189187477700
 Total times  cpu:       69.9s     wall:       69.9s
