============================== echo of input deck ==============================

echo
start H8
title "H8"

memory total 120 gb

geometry units bohr
symmetry c1
H 0 0 0
H 0 0 2.29
H 0 0 4.58
H 0 0 6.87
H 0 0 9.16
H 0 0 11.45
H 0 0 13.74
H 0 0 16.03
end

basis spherical
  * library cc-pVTZ
end

scf
thresh 1e-8
end

tce
  2eorb
  2emet 13
  ccsd
  thresh 1e-8
  maxiter 300
end

set tce:print_integrals T
set tce:qorb 8
set tce:qela 4
set tce:qelb 4

# set tce:qducc T
# set tce:nactv 4
# set tce:nonhf T
# set tce:ducc_model 6

set tce:printtol 0.02

task tce
================================================================================

 Output coordinates in a.u. (scale by  1.000000000 to convert to a.u.)

  No.       Tag          Charge          X              Y              Z
 ---- ---------------- ---------- -------------- -------------- --------------
    1 H                    1.0000     0.00000000     0.00000000    -8.01500000
    2 H                    1.0000     0.00000000     0.00000000    -5.72500000
    3 H                    1.0000     0.00000000     0.00000000    -3.43500000
    4 H                    1.0000     0.00000000     0.00000000    -1.14500000
    5 H                    1.0000     0.00000000     0.00000000     1.14500000
    6 H                    1.0000     0.00000000     0.00000000     3.43500000
    7 H                    1.0000     0.00000000     0.00000000     5.72500000
    8 H                    1.0000     0.00000000     0.00000000     8.01500000

         Total SCF energy =     -4.213068804559

 Vector    1  Occ=2.000000D+00  E=-6.239673D-01

 Vector    2  Occ=2.000000D+00  E=-5.687455D-01

 Vector    3  Occ=2.000000D+00  E=-4.798238D-01

 Vector    4  Occ=2.000000D+00  E=-3.642553D-01

 Vector    5  Occ=0.000000D+00  E=-2.997764D-02

 Vector    6  Occ=0.000000D+00  E= 1.067867D-01

 Vector    7  Occ=0.000000D+00  E= 2.341342D-01

 Vector    8  Occ=0.000000D+00  E= 3.311726D-01

 Vector    9  Occ=0.000000D+00  E= 3.312426D-01

 Vector   10  Occ=0.000000D+00  E= 3.873229D-01

 Vector   11  Occ=0.000000D+00  E= 4.172905D-01

 Vector   12  Occ=0.000000D+00  E= 5.107751D-01

 Vector   13  Occ=0.000000D+00  E= 5.161647D-01

 Vector   14  Occ=0.000000D+00  E= 5.618221D-01

       Multipole analysis of the density wrt the origin
       ------------------------------------------------

     L   x y z        total         open         nuclear
     -   - - -        -----         ----         -------
     0   0 0 0     -0.000000      0.000000      8.000000

     1   1 0 0     -0.000000      0.000000      0.000000
     1   0 1 0      0.000000      0.000000      0.000000
     1   0 0 1      0.000000      0.000000     -0.000000

     2   2 0 0     -7.711153      0.000000      0.000000
     2   1 1 0     -0.000000      0.000000      0.000000
     2   1 0 1      0.000000      0.000000      0.000000
     2   0 2 0     -7.711153      0.000000      0.000000
     2   0 1 1      0.000000      0.000000      0.000000

 CCSD total energy / hartree       =        -4.270573518136643
 Total times  cpu:       69.2s     wall:       69.2s
