============================== echo of input deck ==============================

echo
start H8
title "H8"

memory total 120 gb

geometry units bohr
symmetry c1
H 0 0 0
H 0 0 2.33
H 0 0 4.66
H 0 0 6.99
H 0 0 9.32
H 0 0 11.65
H 0 0 13.98
H 0 0 16.31
end

basis spherical
  * library cc-pVTZ
end

scf
thresh 1e-8
end

tce
  2eorb
  2emet 13
  ccsd
  thresh 1e-8
  maxiter 300
end

set tce:print_integrals T
set tce:qorb 8
set tce:qela 4
set tce:qelb 4

# set tce:qducc T
# set tce:nactv 4
# set tce:nonhf T
# set tce:ducc_model 6

set tce:printtol 0.02

task tce
================================================================================

 Output coordinates in a.u. (scale by  1.000000000 to convert to a.u.)

  No.       Tag          Charge          X              Y              Z
 ---- ---------------- ---------- -------------- -------------- --------------
    1 H                    1.0000     0.00000000     0.00000000    -8.15500000
    2 H                    1.0000     0.00000000     0.00000000    -5.82500000
    3 H                    1.0000     0.00000000     0.00000000    -3.49500000
    4 H                    1.0000     0.00000000     0.00000000    -1.16500000
    5 H                    1.0000     0.00000000     0.00000000     1.16500000
    6 H                    1.0000     0.00000000     0.00000000     3.49500000
    7 H                    1.0000     0.00000000     0.00000000     5.82500000
    8 H                    1.0000     0.00000000     0.00000000     8.15500000

         Total SCF energy =     -4.199842104270

 Vector    1  Occ=2.000000D+00  E=-6.163114D-01

 Vector    2  Occ=2.000000D+00  E=-5.627079D-01

 Vector    3  Occ=2.000000D+00  E=-4.763286D-01

 Vector    4  Occ=2.000000D+00  E=-3.641670D-01

 Vector    5  Occ=0.000000D+00  E=-3.494980D-02

 Vector    6  Occ=0.000000D+00  E= 9.952257D-02

 Vector    7  Occ=0.000000D+00  E= 2.271642D-01

 Vector    8  Occ=0.000000D+00  E= 3.283269D-01

 Vector    9  Occ=0.000000D+00  E= 3.326048D-01

 Vector   10  Occ=0.000000D+00  E= 3.856709D-01

 Vector   11  Occ=0.000000D+00  E= 4.134097D-01

 Vector   12  Occ=0.000000D+00  E= 5.054398D-01

 Vector   13  Occ=0.000000D+00  E= 5.057594D-01

 Vector   14  Occ=0.000000D+00  E= 5.632364D-01

       Multipole analysis of the density wrt the origin
       ------------------------------------------------

     L   x y z        total         open         nuclear
     -   - - -        -----         ----         -------
     0   0 0 0     -0.000000      0.000000      8.000000

     1   1 0 0      0.000000      0.000000      0.000000
     1   0 1 0     -0.000000      0.000000      0.000000
     1   0 0 1     -0.000000      0.000000     -0.000000

     2   2 0 0     -7.805507      0.000000      0.000000
     2   1 1 0     -0.000000      0.000000      0.000000
     2   1 0 1     -0.000000      0.000000      0.000000
     2   0 2 0     -7.805507      0.000000      0.000000
     2   0 1 1     -0.000000      0.000000      0.000000

 CCSD total energy / hartree       =        -4.266893906053333
 Total times  cpu:       78.1s     wall:       78.1s
