============================== echo of input deck ==============================

echo
start H8
title "H8"

memory total 120 gb

geometry units bohr
symmetry c1
H 0 0 0
H 0 0 2.36
H 0 0 4.72
H 0 0 7.08
H 0 0 9.44
H 0 0 11.80
H 0 0 14.16
H 0 0 16.52
end

basis spherical
  * library cc-pVTZ
end

scf
thresh 1e-8
end

tce
  2eorb
  2emet 13
  ccsd
  thresh 1e-8
  maxiter 300
end

set tce:print_integrals T
set tce:qorb 8
set tce:qela 4
set tce:qelb 4

# set tce:qducc T
# set tce:nactv 4
# set tce:nonhf T
# set tce:ducc_model 6

set tce:printtol 0.02

task tce
================================================================================

 Output coordinates in a.u. (scale by  1.000000000 to convert to a.u.)

  No.       Tag          Charge          X              Y              Z
 ---- ---------------- ---------- -------------- -------------- --------------
    1 H                    1.0000     0.00000000     0.00000000    -8.26000000
    2 H                    1.0000     0.00000000     0.00000000    -5.90000000
    3 H                    1.0000     0.00000000     0.00000000    -3.54000000
    4 H                    1.0000     0.00000000     0.00000000    -1.18000000
    5 H                    1.0000     0.00000000     0.00000000     1.18000000
    6 H                    1.0000     0.00000000     0.00000000     3.54000000
    7 H                    1.0000     0.00000000     0.00000000     5.90000000
    8 H                    1.0000     0.00000000     0.00000000     8.26000000

         Total SCF energy =     -4.189724566176

 Vector    1  Occ=2.000000D+00  E=-6.107368D-01

 Vector    2  Occ=2.000000D+00  E=-5.582958D-01

 Vector    3  Occ=2.000000D+00  E=-4.737499D-01

 Vector    4  Occ=2.000000D+00  E=-3.640518D-01

 Vector    5  Occ=0.000000D+00  E=-3.853014D-02

 Vector    6  Occ=0.000000D+00  E= 9.416003D-02

 Vector    7  Occ=0.000000D+00  E= 2.217447D-01

 Vector    8  Occ=0.000000D+00  E= 3.259391D-01

 Vector    9  Occ=0.000000D+00  E= 3.336663D-01

 Vector   10  Occ=0.000000D+00  E= 3.843783D-01

 Vector   11  Occ=0.000000D+00  E= 4.107019D-01

 Vector   12  Occ=0.000000D+00  E= 4.976768D-01

 Vector   13  Occ=0.000000D+00  E= 5.018510D-01

 Vector   14  Occ=0.000000D+00  E= 5.642783D-01

       Multipole analysis of the density wrt the origin
       ------------------------------------------------

     L   x y z        total         open         nuclear
     -   - - -        -----         ----         -------
     0   0 0 0     -0.000000      0.000000      8.000000

     1   1 0 0     -0.000000      0.000000      0.000000
     1   0 1 0     -0.000000      0.000000      0.000000
     1   0 0 1     -0.000000      0.000000      0.000000

     2   2 0 0     -7.875486      0.000000      0.000000
     2   1 1 0      0.000000      0.000000      0.000000
     2   1 0 1     -0.000000      0.000000      0.000000
     2   0 2 0     -7.875486      0.000000      0.000000
     2   0 1 1      0.000000      0.000000      0.000000

 CCSD total energy / hartree       =        -4.259227993656675
 Total times  cpu:      130.6s     wall:      130.6s
