============================== echo of input deck ==============================

echo
start H8
title "H8"

memory total 120 gb

geometry units bohr
symmetry c1
H 0 0 0
H 0 0 2.37
H 0 0 4.74
H 0 0 7.11
H 0 0 9.48
H 0 0 11.85
H 0 0 14.22
H 0 0 16.59
end

basis spherical
  * library cc-pVTZ
end

scf
thresh 1e-8
end

tce
  2eorb
  2emet 13
  ccsd
  thresh 1e-8
  maxiter 300
end

set tce:print_integrals T
set tce:qorb 8
set tce:qela 4
set tce:qelb 4

# set tce:qducc T
# set tce:nactv 4
# set tce:nonhf T
# set tce:ducc_model 6

set tce:printtol 0.02

task tce
================================================================================

 Output coordinates in a.u. (scale by  1.000000000 to convert to a.u.)

  No.       Tag          Charge          X              Y              Z
 ---- ---------------- ---------- -------------- -------------- --------------
    1 H                    1.0000     0.00000000     0.00000000    -8.29500000
    2 H                    1.0000     0.00000000     0.00000000    -5.92500000
    3 H                    1.0000     0.00000000     0.00000000    -3.55500000
    4 H                    1.0000     0.00000000     0.00000000    -1.18500000
    5 H                    1.0000     0.00000000     0.00000000     1.18500000
    6 H                    1.0000     0.00000000     0.00000000     3.55500000
    7 H                    1.0000     0.00000000     0.00000000     5.92500000
    8 H                    1.0000     0.00000000     0.00000000     8.29500000

         Total SCF energy =     -4.186318554257

 Vector    1  Occ=2.000000D+00  E=-6.089093D-01

 Vector    2  Occ=2.000000D+00  E=-5.568466D-01

 Vector    3  Occ=2.000000D+00  E=-4.728983D-01

 Vector    4  Occ=2.000000D+00  E=-3.640047D-01

 Vector    5  Occ=0.000000D+00  E=-3.969615D-02

 Vector    6  Occ=0.000000D+00  E= 9.239025D-02

 Vector    7  Occ=0.000000D+00  E= 2.199060D-01

 Vector    8  Occ=0.000000D+00  E= 3.250955D-01

 Vector    9  Occ=0.000000D+00  E= 3.340182D-01

 Vector   10  Occ=0.000000D+00  E= 3.839365D-01

 Vector   11  Occ=0.000000D+00  E= 4.098414D-01

 Vector   12  Occ=0.000000D+00  E= 4.949679D-01

 Vector   13  Occ=0.000000D+00  E= 5.007239D-01

 Vector   14  Occ=0.000000D+00  E= 5.646225D-01

       Multipole analysis of the density wrt the origin
       ------------------------------------------------

     L   x y z        total         open         nuclear
     -   - - -        -----         ----         -------
     0   0 0 0     -0.000000      0.000000      8.000000

     1   1 0 0     -0.000000      0.000000      0.000000
     1   0 1 0     -0.000000      0.000000      0.000000
     1   0 0 1      0.000000      0.000000      0.000000

     2   2 0 0     -7.898660      0.000000      0.000000
     2   1 1 0     -0.000000      0.000000      0.000000
     2   1 0 1     -0.000000      0.000000      0.000000
     2   0 2 0     -7.898660      0.000000      0.000000
     2   0 1 1     -0.000000      0.000000      0.000000

 CCSD total energy / hartree       =        -4.256673286464173
 Total times  cpu:       77.0s     wall:       77.0s
