============================== echo of input deck ==============================

echo
start H8
title "H8"

memory total 120 gb

geometry units bohr
symmetry c1
H 0 0 0
H 0 0 2.38
H 0 0 4.76
H 0 0 7.14
H 0 0 9.52
H 0 0 11.90
H 0 0 14.28
H 0 0 16.66
end

basis spherical
  * library cc-pVTZ
end

scf
thresh 1e-8
end

tce
  2eorb
  2emet 13
  ccsd
  thresh 1e-8
  maxiter 300
end

set tce:print_integrals T
set tce:qorb 8
set tce:qela 4
set tce:qelb 4

# set tce:qducc T
# set tce:nactv 4
# set tce:nonhf T
# set tce:ducc_model 6

set tce:printtol 0.02

task tce
================================================================================

 Output coordinates in a.u. (scale by  1.000000000 to convert to a.u.)

  No.       Tag          Charge          X              Y              Z
 ---- ---------------- ---------- -------------- -------------- --------------
    1 H                    1.0000     0.00000000     0.00000000    -8.33000000
    2 H                    1.0000     0.00000000     0.00000000    -5.95000000
    3 H                    1.0000     0.00000000     0.00000000    -3.57000000
    4 H                    1.0000     0.00000000     0.00000000    -1.19000000
    5 H                    1.0000     0.00000000     0.00000000     1.19000000
    6 H                    1.0000     0.00000000     0.00000000     3.57000000
    7 H                    1.0000     0.00000000     0.00000000     5.95000000
    8 H                    1.0000     0.00000000     0.00000000     8.33000000

         Total SCF energy =     -4.182897007309

 Vector    1  Occ=2.000000D+00  E=-6.070969D-01

 Vector    2  Occ=2.000000D+00  E=-5.554079D-01

 Vector    3  Occ=2.000000D+00  E=-4.720507D-01

 Vector    4  Occ=2.000000D+00  E=-3.639534D-01

 Vector    5  Occ=0.000000D+00  E=-4.084871D-02

 Vector    6  Occ=0.000000D+00  E= 9.062971D-02

 Vector    7  Occ=0.000000D+00  E= 2.180525D-01

 Vector    8  Occ=0.000000D+00  E= 3.242249D-01

 Vector    9  Occ=0.000000D+00  E= 3.343691D-01

 Vector   10  Occ=0.000000D+00  E= 3.834893D-01

 Vector   11  Occ=0.000000D+00  E= 4.090025D-01

 Vector   12  Occ=0.000000D+00  E= 4.922639D-01

 Vector   13  Occ=0.000000D+00  E= 4.996287D-01

 Vector   14  Occ=0.000000D+00  E= 5.649652D-01

       Multipole analysis of the density wrt the origin
       ------------------------------------------------

     L   x y z        total         open         nuclear
     -   - - -        -----         ----         -------
     0   0 0 0     -0.000000      0.000000      8.000000

     1   1 0 0     -0.000000      0.000000      0.000000
     1   0 1 0      0.000000      0.000000      0.000000
     1   0 0 1      0.000000      0.000000      0.000000

     2   2 0 0     -7.921757      0.000000      0.000000
     2   1 1 0     -0.000000      0.000000      0.000000
     2   1 0 1     -0.000000      0.000000      0.000000
     2   0 2 0     -7.921757      0.000000      0.000000
     2   0 1 1      0.000000      0.000000      0.000000

 CCSD total energy / hartree       =        -4.254121872969653
 Total times  cpu:       76.0s     wall:       76.0s
