============================== echo of input deck ==============================

echo
start H8
title "H8"

memory total 120 gb

geometry units bohr
symmetry c1
H 0 0 0
H 0 0 2.40
H 0 0 4.80
H 0 0 7.20
H 0 0 9.60
H 0 0 12.00
H 0 0 14.40
H 0 0 16.80
end

basis spherical
  * library cc-pVTZ
end

scf
thresh 1e-8
end

tce
  2eorb
  2emet 13
  ccsd
  thresh 1e-8
  maxiter 300
end

set tce:print_integrals T
set tce:qorb 8
set tce:qela 4
set tce:qelb 4

# set tce:qducc T
# set tce:nactv 4
# set tce:nonhf T
# set tce:ducc_model 6

set tce:printtol 0.02

task tce
================================================================================

 Output coordinates in a.u. (scale by  1.000000000 to convert to a.u.)

  No.       Tag          Charge          X              Y              Z
 ---- ---------------- ---------- -------------- -------------- --------------
    1 H                    1.0000     0.00000000     0.00000000    -8.40000000
    2 H                    1.0000     0.00000000     0.00000000    -6.00000000
    3 H                    1.0000     0.00000000     0.00000000    -3.60000000
    4 H                    1.0000     0.00000000     0.00000000    -1.20000000
    5 H                    1.0000     0.00000000     0.00000000     1.20000000
    6 H                    1.0000     0.00000000     0.00000000     3.60000000
    7 H                    1.0000     0.00000000     0.00000000     6.00000000
    8 H                    1.0000     0.00000000     0.00000000     8.40000000

         Total SCF energy =     -4.176010098697

 Vector    1  Occ=2.000000D+00  E=-6.035163D-01

 Vector    2  Occ=2.000000D+00  E=-5.525616D-01

 Vector    3  Occ=2.000000D+00  E=-4.703674D-01

 Vector    4  Occ=2.000000D+00  E=-3.638387D-01

 Vector    5  Occ=0.000000D+00  E=-4.311415D-02

 Vector    6  Occ=0.000000D+00  E= 8.713717D-02

 Vector    7  Occ=0.000000D+00  E= 2.143050D-01

 Vector    8  Occ=0.000000D+00  E= 3.223942D-01

 Vector    9  Occ=0.000000D+00  E= 3.350688D-01

 Vector   10  Occ=0.000000D+00  E= 3.825791D-01

 Vector   11  Occ=0.000000D+00  E= 4.073907D-01

 Vector   12  Occ=0.000000D+00  E= 4.868993D-01

 Vector   13  Occ=0.000000D+00  E= 4.975282D-01

 Vector   14  Occ=0.000000D+00  E= 5.656468D-01

       Multipole analysis of the density wrt the origin
       ------------------------------------------------

     L   x y z        total         open         nuclear
     -   - - -        -----         ----         -------
     0   0 0 0     -0.000000      0.000000      8.000000

     1   1 0 0      0.000000      0.000000      0.000000
     1   0 1 0     -0.000000      0.000000      0.000000
     1   0 0 1     -0.000000      0.000000      0.000000

     2   2 0 0     -7.967718      0.000000      0.000000
     2   1 1 0      0.000000      0.000000      0.000000
     2   1 0 1      0.000000      0.000000      0.000000
     2   0 2 0     -7.967718      0.000000      0.000000
     2   0 1 1     -0.000000      0.000000      0.000000

 CCSD total energy / hartree       =        -4.249036108495865
 Total times  cpu:       70.8s     wall:       70.8s
