============================== echo of input deck ==============================

echo
start H8
title "H8"

memory total 120 gb

geometry units bohr
symmetry c1
H 0 0 0
H 0 0 2.42
H 0 0 4.84
H 0 0 7.26
H 0 0 9.68
H 0 0 12.10
H 0 0 14.52
H 0 0 16.94
end

basis spherical
  * library cc-pVTZ
end

scf
thresh 1e-8
end

tce
  2eorb
  2emet 13
  ccsd
  thresh 1e-8
  maxiter 300
end

set tce:print_integrals T
set tce:qorb 8
set tce:qela 4
set tce:qelb 4

# set tce:qducc T
# set tce:nactv 4
# set tce:nonhf T
# set tce:ducc_model 6

set tce:printtol 0.02

task tce
================================================================================

 Output coordinates in a.u. (scale by  1.000000000 to convert to a.u.)

  No.       Tag          Charge          X              Y              Z
 ---- ---------------- ---------- -------------- -------------- --------------
    1 H                    1.0000     0.00000000     0.00000000    -8.47000000
    2 H                    1.0000     0.00000000     0.00000000    -6.05000000
    3 H                    1.0000     0.00000000     0.00000000    -3.63000000
    4 H                    1.0000     0.00000000     0.00000000    -1.21000000
    5 H                    1.0000     0.00000000     0.00000000     1.21000000
    6 H                    1.0000     0.00000000     0.00000000     3.63000000
    7 H                    1.0000     0.00000000     0.00000000     6.05000000
    8 H                    1.0000     0.00000000     0.00000000     8.47000000

         Total SCF energy =     -4.169069239268

 Vector    1  Occ=2.000000D+00  E=-5.999936D-01

 Vector    2  Occ=2.000000D+00  E=-5.497560D-01

 Vector    3  Occ=2.000000D+00  E=-4.686998D-01

 Vector    4  Occ=2.000000D+00  E=-3.637084D-01

 Vector    5  Occ=0.000000D+00  E=-4.532776D-02

 Vector    6  Occ=0.000000D+00  E= 8.368387D-02

 Vector    7  Occ=0.000000D+00  E= 2.105088D-01

 Vector    8  Occ=0.000000D+00  E= 3.204306D-01

 Vector    9  Occ=0.000000D+00  E= 3.357657D-01

 Vector   10  Occ=0.000000D+00  E= 3.816503D-01

 Vector   11  Occ=0.000000D+00  E= 4.058677D-01

 Vector   12  Occ=0.000000D+00  E= 4.816370D-01

 Vector   13  Occ=0.000000D+00  E= 4.955384D-01

 Vector   14  Occ=0.000000D+00  E= 5.663237D-01

       Multipole analysis of the density wrt the origin
       ------------------------------------------------

     L   x y z        total         open         nuclear
     -   - - -        -----         ----         -------
     0   0 0 0     -0.000000      0.000000      8.000000

     1   1 0 0      0.000000      0.000000      0.000000
     1   0 1 0     -0.000000      0.000000      0.000000
     1   0 0 1      0.000000      0.000000      0.000000

     2   2 0 0     -8.013367      0.000000      0.000000
     2   1 1 0     -0.000000      0.000000      0.000000
     2   1 0 1      0.000000      0.000000      0.000000
     2   0 2 0     -8.013367      0.000000      0.000000
     2   0 1 1      0.000000      0.000000      0.000000

 CCSD total energy / hartree       =        -4.243984852054942
 Total times  cpu:       71.3s     wall:       71.3s
