============================== echo of input deck ==============================

echo
start H8
title "H8"

memory total 120 gb

geometry units bohr
symmetry c1
H 0 0 0
H 0 0 2.43
H 0 0 4.86
H 0 0 7.29
H 0 0 9.72
H 0 0 12.15
H 0 0 14.58
H 0 0 17.01
end

basis spherical
  * library cc-pVTZ
end

scf
thresh 1e-8
end

tce
  2eorb
  2emet 13
  ccsd
  thresh 1e-8
  maxiter 300
end

set tce:print_integrals T
set tce:qorb 8
set tce:qela 4
set tce:qelb 4

# set tce:qducc T
# set tce:nactv 4
# set tce:nonhf T
# set tce:ducc_model 6

set tce:printtol 0.02

task tce
================================================================================

 Output coordinates in a.u. (scale by  1.000000000 to convert to a.u.)

  No.       Tag          Charge          X              Y              Z
 ---- ---------------- ---------- -------------- -------------- --------------
    1 H                    1.0000     0.00000000     0.00000000    -8.50500000
    2 H                    1.0000     0.00000000     0.00000000    -6.07500000
    3 H                    1.0000     0.00000000     0.00000000    -3.64500000
    4 H                    1.0000     0.00000000     0.00000000    -1.21500000
    5 H                    1.0000     0.00000000     0.00000000     1.21500000
    6 H                    1.0000     0.00000000     0.00000000     3.64500000
    7 H                    1.0000     0.00000000     0.00000000     6.07500000
    8 H                    1.0000     0.00000000     0.00000000     8.50500000

         Total SCF energy =     -4.165580191178

 Vector    1  Occ=2.000000D+00  E=-5.982535D-01

 Vector    2  Occ=2.000000D+00  E=-5.483681D-01

 Vector    3  Occ=2.000000D+00  E=-4.678719D-01

 Vector    4  Occ=2.000000D+00  E=-3.636377D-01

 Vector    5  Occ=0.000000D+00  E=-4.641553D-02

 Vector    6  Occ=0.000000D+00  E= 8.197234D-02

 Vector    7  Occ=0.000000D+00  E= 2.085946D-01

 Vector    8  Occ=0.000000D+00  E= 3.193937D-01

 Vector    9  Occ=0.000000D+00  E= 3.361133D-01

 Vector   10  Occ=0.000000D+00  E= 3.811801D-01

 Vector   11  Occ=0.000000D+00  E= 4.051397D-01

 Vector   12  Occ=0.000000D+00  E= 4.790596D-01

 Vector   13  Occ=0.000000D+00  E= 4.945819D-01

 Vector   14  Occ=0.000000D+00  E= 5.666607D-01

       Multipole analysis of the density wrt the origin
       ------------------------------------------------

     L   x y z        total         open         nuclear
     -   - - -        -----         ----         -------
     0   0 0 0     -0.000000      0.000000      8.000000

     1   1 0 0     -0.000000      0.000000      0.000000
     1   0 1 0     -0.000000      0.000000      0.000000
     1   0 0 1     -0.000000      0.000000     -0.000000

     2   2 0 0     -8.036073      0.000000      0.000000
     2   1 1 0      0.000000      0.000000      0.000000
     2   1 0 1      0.000000      0.000000      0.000000
     2   0 2 0     -8.036073      0.000000      0.000000
     2   0 1 1     -0.000000      0.000000      0.000000

 CCSD total energy / hartree       =        -4.241476420326705
 Total times  cpu:       71.7s     wall:       71.7s
