============================== echo of input deck ==============================

echo
start H8
title "H8"

memory total 120 gb

geometry units bohr
symmetry c1
H 0 0 0
H 0 0 2.44
H 0 0 4.88
H 0 0 7.32
H 0 0 9.76
H 0 0 12.20
H 0 0 14.64
H 0 0 17.08
end

basis spherical
  * library cc-pVTZ
end

scf
thresh 1e-8
end

tce
  2eorb
  2emet 13
  ccsd
  thresh 1e-8
  maxiter 300
end

set tce:print_integrals T
set tce:qorb 8
set tce:qela 4
set tce:qelb 4

# set tce:qducc T
# set tce:nactv 4
# set tce:nonhf T
# set tce:ducc_model 6

set tce:printtol 0.02

task tce
================================================================================

 Output coordinates in a.u. (scale by  1.000000000 to convert to a.u.)

  No.       Tag          Charge          X              Y              Z
 ---- ---------------- ---------- -------------- -------------- --------------
    1 H                    1.0000     0.00000000     0.00000000    -8.54000000
    2 H                    1.0000     0.00000000     0.00000000    -6.10000000
    3 H                    1.0000     0.00000000     0.00000000    -3.66000000
    4 H                    1.0000     0.00000000     0.00000000    -1.22000000
    5 H                    1.0000     0.00000000     0.00000000     1.22000000
    6 H                    1.0000     0.00000000     0.00000000     3.66000000
    7 H                    1.0000     0.00000000     0.00000000     6.10000000
    8 H                    1.0000     0.00000000     0.00000000     8.54000000

         Total SCF energy =     -4.162079557438

 Vector    1  Occ=2.000000D+00  E=-5.965273D-01

 Vector    2  Occ=2.000000D+00  E=-5.469901D-01

 Vector    3  Occ=2.000000D+00  E=-4.670479D-01

 Vector    4  Occ=2.000000D+00  E=-3.635634D-01

 Vector    5  Occ=0.000000D+00  E=-4.749082D-02

 Vector    6  Occ=0.000000D+00  E= 8.027106D-02

 Vector    7  Occ=0.000000D+00  E= 2.066709D-01

 Vector    8  Occ=0.000000D+00  E= 3.183173D-01

 Vector    9  Occ=0.000000D+00  E= 3.364605D-01

 Vector   10  Occ=0.000000D+00  E= 3.807068D-01

 Vector   11  Occ=0.000000D+00  E= 4.044338D-01

 Vector   12  Occ=0.000000D+00  E= 4.765254D-01

 Vector   13  Occ=0.000000D+00  E= 4.936494D-01

 Vector   14  Occ=0.000000D+00  E= 5.669968D-01

       Multipole analysis of the density wrt the origin
       ------------------------------------------------

     L   x y z        total         open         nuclear
     -   - - -        -----         ----         -------
     0   0 0 0     -0.000000      0.000000      8.000000

     1   1 0 0      0.000000      0.000000      0.000000
     1   0 1 0      0.000000      0.000000      0.000000
     1   0 0 1      0.000000      0.000000     -0.000000

     2   2 0 0     -8.058701      0.000000      0.000000
     2   1 1 0     -0.000000      0.000000      0.000000
     2   1 0 1      0.000000      0.000000      0.000000
     2   0 2 0     -8.058701      0.000000      0.000000
     2   0 1 1      0.000000      0.000000      0.000000

 CCSD total energy / hartree       =        -4.238981585254341
 Total times  cpu:       93.7s     wall:       93.7s
