============================== echo of input deck ==============================

echo
start H8
title "H8"

memory total 120 gb

geometry units bohr
symmetry c1
H 0 0 0
H 0 0 2.46
H 0 0 4.92
H 0 0 7.38
H 0 0 9.84
H 0 0 12.30
H 0 0 14.76
H 0 0 17.22
end

basis spherical
  * library cc-pVTZ
end

scf
thresh 1e-8
end

tce
  2eorb
  2emet 13
  ccsd
  thresh 1e-8
  maxiter 300
end

set tce:print_integrals T
set tce:qorb 8
set tce:qela 4
set tce:qelb 4

# set tce:qducc T
# set tce:nactv 4
# set tce:nonhf T
# set tce:ducc_model 6

set tce:printtol 0.02

task tce
================================================================================

 Output coordinates in a.u. (scale by  1.000000000 to convert to a.u.)

  No.       Tag          Charge          X              Y              Z
 ---- ---------------- ---------- -------------- -------------- --------------
    1 H                    1.0000     0.00000000     0.00000000    -8.61000000
    2 H                    1.0000     0.00000000     0.00000000    -6.15000000
    3 H                    1.0000     0.00000000     0.00000000    -3.69000000
    4 H                    1.0000     0.00000000     0.00000000    -1.23000000
    5 H                    1.0000     0.00000000     0.00000000     1.23000000
    6 H                    1.0000     0.00000000     0.00000000     3.69000000
    7 H                    1.0000     0.00000000     0.00000000     6.15000000
    8 H                    1.0000     0.00000000     0.00000000     8.61000000

         Total SCF energy =     -4.155045925569

 Vector    1  Occ=2.000000D+00  E=-5.931158D-01

 Vector    2  Occ=2.000000D+00  E=-5.442632D-01

 Vector    3  Occ=2.000000D+00  E=-4.654115D-01

 Vector    4  Occ=2.000000D+00  E=-3.634043D-01

 Vector    5  Occ=0.000000D+00  E=-4.960458D-02

 Vector    6  Occ=0.000000D+00  E= 7.689978D-02

 Vector    7  Occ=0.000000D+00  E= 2.027978D-01

 Vector    8  Occ=0.000000D+00  E= 3.160384D-01

 Vector    9  Occ=0.000000D+00  E= 3.371535D-01

 Vector   10  Occ=0.000000D+00  E= 3.797541D-01

 Vector   11  Occ=0.000000D+00  E= 4.030879D-01

 Vector   12  Occ=0.000000D+00  E= 4.716062D-01

 Vector   13  Occ=0.000000D+00  E= 4.918522D-01

 Vector   14  Occ=0.000000D+00  E= 5.676670D-01

       Multipole analysis of the density wrt the origin
       ------------------------------------------------

     L   x y z        total         open         nuclear
     -   - - -        -----         ----         -------
     0   0 0 0     -0.000000      0.000000      8.000000

     1   1 0 0      0.000000      0.000000      0.000000
     1   0 1 0      0.000000      0.000000      0.000000
     1   0 0 1      0.000000      0.000000      0.000000

     2   2 0 0     -8.103716      0.000000      0.000000
     2   1 1 0     -0.000000      0.000000      0.000000
     2   1 0 1      0.000000      0.000000      0.000000
     2   0 2 0     -8.103716      0.000000      0.000000
     2   0 1 1      0.000000      0.000000      0.000000

 CCSD total energy / hartree       =        -4.234038519721706
 Total times  cpu:      111.3s     wall:      111.3s
