============================== echo of input deck ==============================

echo
start H8
title "H8"

memory total 120 gb

geometry units bohr
symmetry c1
H 0 0 0
H 0 0 2.47
H 0 0 4.94
H 0 0 7.41
H 0 0 9.88
H 0 0 12.35
H 0 0 14.82
H 0 0 17.29
end

basis spherical
  * library cc-pVTZ
end

scf
thresh 1e-8
end

tce
  2eorb
  2emet 13
  ccsd
  thresh 1e-8
  maxiter 300
end

set tce:print_integrals T
set tce:qorb 8
set tce:qela 4
set tce:qelb 4

# set tce:qducc T
# set tce:nactv 4
# set tce:nonhf T
# set tce:ducc_model 6

set tce:printtol 0.02

task tce
================================================================================

 Output coordinates in a.u. (scale by  1.000000000 to convert to a.u.)

  No.       Tag          Charge          X              Y              Z
 ---- ---------------- ---------- -------------- -------------- --------------
    1 H                    1.0000     0.00000000     0.00000000    -8.64500000
    2 H                    1.0000     0.00000000     0.00000000    -6.17500000
    3 H                    1.0000     0.00000000     0.00000000    -3.70500000
    4 H                    1.0000     0.00000000     0.00000000    -1.23500000
    5 H                    1.0000     0.00000000     0.00000000     1.23500000
    6 H                    1.0000     0.00000000     0.00000000     3.70500000
    7 H                    1.0000     0.00000000     0.00000000     6.17500000
    8 H                    1.0000     0.00000000     0.00000000     8.64500000

         Total SCF energy =     -4.151514082949

 Vector    1  Occ=2.000000D+00  E=-5.914303D-01

 Vector    2  Occ=2.000000D+00  E=-5.429140D-01

 Vector    3  Occ=2.000000D+00  E=-4.645990D-01

 Vector    4  Occ=2.000000D+00  E=-3.633197D-01

 Vector    5  Occ=0.000000D+00  E=-5.064335D-02

 Vector    6  Occ=0.000000D+00  E= 7.522998D-02

 Vector    7  Occ=0.000000D+00  E= 2.008502D-01

 Vector    8  Occ=0.000000D+00  E= 3.148321D-01

 Vector    9  Occ=0.000000D+00  E= 3.374995D-01

 Vector   10  Occ=0.000000D+00  E= 3.792764D-01

 Vector   11  Occ=0.000000D+00  E= 4.024476D-01

 Vector   12  Occ=0.000000D+00  E= 4.692297D-01

 Vector   13  Occ=0.000000D+00  E= 4.909854D-01

 Vector   14  Occ=0.000000D+00  E= 5.680013D-01

       Multipole analysis of the density wrt the origin
       ------------------------------------------------

     L   x y z        total         open         nuclear
     -   - - -        -----         ----         -------
     0   0 0 0     -0.000000      0.000000      8.000000

     1   1 0 0     -0.000000      0.000000      0.000000
     1   0 1 0     -0.000000      0.000000      0.000000
     1   0 0 1      0.000000      0.000000      0.000000

     2   2 0 0     -8.126104      0.000000      0.000000
     2   1 1 0     -0.000000      0.000000      0.000000
     2   1 0 1      0.000000      0.000000      0.000000
     2   0 2 0     -8.126104      0.000000      0.000000
     2   0 1 1      0.000000      0.000000      0.000000

 CCSD total energy / hartree       =        -4.231592846953628
 Total times  cpu:       71.5s     wall:       71.5s
