============================== echo of input deck ==============================

echo
start H8
title "H8"

memory total 120 gb

geometry units bohr
symmetry c1
H 0 0 0
H 0 0 2.49
H 0 0 4.98
H 0 0 7.47
H 0 0 9.96
H 0 0 12.45
H 0 0 14.94
H 0 0 17.43
end

basis spherical
  * library cc-pVTZ
end

scf
thresh 1e-8
end

tce
  2eorb
  2emet 13
  ccsd
  thresh 1e-8
  maxiter 300
end

set tce:print_integrals T
set tce:qorb 8
set tce:qela 4
set tce:qelb 4

# set tce:qducc T
# set tce:nactv 4
# set tce:nonhf T
# set tce:ducc_model 6

set tce:printtol 0.02

task tce
================================================================================

 Output coordinates in a.u. (scale by  1.000000000 to convert to a.u.)

  No.       Tag          Charge          X              Y              Z
 ---- ---------------- ---------- -------------- -------------- --------------
    1 H                    1.0000     0.00000000     0.00000000    -8.71500000
    2 H                    1.0000     0.00000000     0.00000000    -6.22500000
    3 H                    1.0000     0.00000000     0.00000000    -3.73500000
    4 H                    1.0000     0.00000000     0.00000000    -1.24500000
    5 H                    1.0000     0.00000000     0.00000000     1.24500000
    6 H                    1.0000     0.00000000     0.00000000     3.73500000
    7 H                    1.0000     0.00000000     0.00000000     6.22500000
    8 H                    1.0000     0.00000000     0.00000000     8.71500000

         Total SCF energy =     -4.144423124377

 Vector    1  Occ=2.000000D+00  E=-5.880987D-01

 Vector    2  Occ=2.000000D+00  E=-5.402438D-01

 Vector    3  Occ=2.000000D+00  E=-4.629855D-01

 Vector    4  Occ=2.000000D+00  E=-3.631408D-01

 Vector    5  Occ=0.000000D+00  E=-5.268545D-02

 Vector    6  Occ=0.000000D+00  E= 7.192253D-02

 Vector    7  Occ=0.000000D+00  E= 1.969367D-01

 Vector    8  Occ=0.000000D+00  E= 3.122777D-01

 Vector    9  Occ=0.000000D+00  E= 3.381907D-01

 Vector   10  Occ=0.000000D+00  E= 3.783234D-01

 Vector   11  Occ=0.000000D+00  E= 4.012307D-01

 Vector   12  Occ=0.000000D+00  E= 4.646605D-01

 Vector   13  Occ=0.000000D+00  E= 4.893111D-01

 Vector   14  Occ=0.000000D+00  E= 5.655340D-01

       Multipole analysis of the density wrt the origin
       ------------------------------------------------

     L   x y z        total         open         nuclear
     -   - - -        -----         ----         -------
     0   0 0 0     -0.000000      0.000000      8.000000

     1   1 0 0      0.000000      0.000000      0.000000
     1   0 1 0     -0.000000      0.000000      0.000000
     1   0 0 1      0.000000      0.000000      0.000000

     2   2 0 0     -8.170639      0.000000      0.000000
     2   1 1 0      0.000000      0.000000      0.000000
     2   1 0 1     -0.000000      0.000000      0.000000
     2   0 2 0     -8.170639      0.000000      0.000000
     2   0 1 1      0.000000      0.000000      0.000000

 CCSD total energy / hartree       =        -4.226758371260185
 Total times  cpu:       77.8s     wall:       77.8s
