============================== echo of input deck ==============================

echo
start H8
title "H8"

memory total 120 gb

geometry units bohr
symmetry c1
H 0 0 0
H 0 0 2.50
H 0 0 5.00
H 0 0 7.50
H 0 0 10.00
H 0 0 12.50
H 0 0 15.00
H 0 0 17.50
end

basis spherical
  * library cc-pVTZ
end

scf
thresh 1e-8
end

tce
  2eorb
  2emet 13
  ccsd
  thresh 1e-8
  maxiter 300
end

set tce:print_integrals T
set tce:qorb 8
set tce:qela 4
set tce:qelb 4

# set tce:qducc T
# set tce:nactv 4
# set tce:nonhf T
# set tce:ducc_model 6

set tce:printtol 0.02

task tce
================================================================================

 Output coordinates in a.u. (scale by  1.000000000 to convert to a.u.)

  No.       Tag          Charge          X              Y              Z
 ---- ---------------- ---------- -------------- -------------- --------------
    1 H                    1.0000     0.00000000     0.00000000    -8.75000000
    2 H                    1.0000     0.00000000     0.00000000    -6.25000000
    3 H                    1.0000     0.00000000     0.00000000    -3.75000000
    4 H                    1.0000     0.00000000     0.00000000    -1.25000000
    5 H                    1.0000     0.00000000     0.00000000     1.25000000
    6 H                    1.0000     0.00000000     0.00000000     3.75000000
    7 H                    1.0000     0.00000000     0.00000000     6.25000000
    8 H                    1.0000     0.00000000     0.00000000     8.75000000

         Total SCF energy =     -4.140865079421

 Vector    1  Occ=2.000000D+00  E=-5.864523D-01

 Vector    2  Occ=2.000000D+00  E=-5.389226D-01

 Vector    3  Occ=2.000000D+00  E=-4.621845D-01

 Vector    4  Occ=2.000000D+00  E=-3.630467D-01

 Vector    5  Occ=0.000000D+00  E=-5.368906D-02

 Vector    6  Occ=0.000000D+00  E= 7.028502D-02

 Vector    7  Occ=0.000000D+00  E= 1.949723D-01

 Vector    8  Occ=0.000000D+00  E= 3.109266D-01

 Vector    9  Occ=0.000000D+00  E= 3.385360D-01

 Vector   10  Occ=0.000000D+00  E= 3.778503D-01

 Vector   11  Occ=0.000000D+00  E= 4.006536D-01

 Vector   12  Occ=0.000000D+00  E= 4.624733D-01

 Vector   13  Occ=0.000000D+00  E= 4.885017D-01

 Vector   14  Occ=0.000000D+00  E= 5.641792D-01

       Multipole analysis of the density wrt the origin
       ------------------------------------------------

     L   x y z        total         open         nuclear
     -   - - -        -----         ----         -------
     0   0 0 0     -0.000000      0.000000      8.000000

     1   1 0 0      0.000000      0.000000      0.000000
     1   0 1 0     -0.000000      0.000000      0.000000
     1   0 0 1     -0.000000      0.000000      0.000000

     2   2 0 0     -8.192786      0.000000      0.000000
     2   1 1 0      0.000000      0.000000      0.000000
     2   1 0 1      0.000000      0.000000      0.000000
     2   0 2 0     -8.192786      0.000000      0.000000
     2   0 1 1     -0.000000      0.000000      0.000000

 CCSD total energy / hartree       =        -4.224371034057455
 Total times  cpu:       73.0s     wall:       73.0s
