============================== echo of input deck ==============================

echo
start H8
title "H8"

memory total 120 gb

geometry units bohr
symmetry c1
H 0 0 0
H 0 0 2.52
H 0 0 5.04
H 0 0 7.56
H 0 0 10.08
H 0 0 12.60
H 0 0 15.12
H 0 0 17.64
end

basis spherical
  * library cc-pVTZ
end

scf
thresh 1e-8
end

tce
  2eorb
  2emet 13
  ccsd
  thresh 1e-8
  maxiter 300
end

set tce:print_integrals T
set tce:qorb 8
set tce:qela 4
set tce:qelb 4

# set tce:qducc T
# set tce:nactv 4
# set tce:nonhf T
# set tce:ducc_model 6

set tce:printtol 0.02

task tce
================================================================================

 Output coordinates in a.u. (scale by  1.000000000 to convert to a.u.)

  No.       Tag          Charge          X              Y              Z
 ---- ---------------- ---------- -------------- -------------- --------------
    1 H                    1.0000     0.00000000     0.00000000    -8.82000000
    2 H                    1.0000     0.00000000     0.00000000    -6.30000000
    3 H                    1.0000     0.00000000     0.00000000    -3.78000000
    4 H                    1.0000     0.00000000     0.00000000    -1.26000000
    5 H                    1.0000     0.00000000     0.00000000     1.26000000
    6 H                    1.0000     0.00000000     0.00000000     3.78000000
    7 H                    1.0000     0.00000000     0.00000000     6.30000000
    8 H                    1.0000     0.00000000     0.00000000     8.82000000

         Total SCF energy =     -4.133726428898

 Vector    1  Occ=2.000000D+00  E=-5.831976D-01

 Vector    2  Occ=2.000000D+00  E=-5.363074D-01

 Vector    3  Occ=2.000000D+00  E=-4.605937D-01

 Vector    4  Occ=2.000000D+00  E=-3.628495D-01

 Vector    5  Occ=0.000000D+00  E=-5.566218D-02

 Vector    6  Occ=0.000000D+00  E= 6.704277D-02

 Vector    7  Occ=0.000000D+00  E= 1.910319D-01

 Vector    8  Occ=0.000000D+00  E= 3.080713D-01

 Vector    9  Occ=0.000000D+00  E= 3.392265D-01

 Vector   10  Occ=0.000000D+00  E= 3.769168D-01

 Vector   11  Occ=0.000000D+00  E= 3.995603D-01

 Vector   12  Occ=0.000000D+00  E= 4.583040D-01

 Vector   13  Occ=0.000000D+00  E= 4.869347D-01

 Vector   14  Occ=0.000000D+00  E= 5.615832D-01

       Multipole analysis of the density wrt the origin
       ------------------------------------------------

     L   x y z        total         open         nuclear
     -   - - -        -----         ----         -------
     0   0 0 0     -0.000000      0.000000      8.000000

     1   1 0 0      0.000000      0.000000      0.000000
     1   0 1 0     -0.000000      0.000000      0.000000
     1   0 0 1      0.000000      0.000000     -0.000000

     2   2 0 0     -8.236836      0.000000      0.000000
     2   1 1 0      0.000000      0.000000      0.000000
     2   1 0 1      0.000000      0.000000      0.000000
     2   0 2 0     -8.236836      0.000000      0.000000
     2   0 1 1      0.000000      0.000000      0.000000

 CCSD total energy / hartree       =        -4.219658138717548
 Total times  cpu:       71.2s     wall:       71.2s
