============================== echo of input deck ==============================

echo
start H8
title "H8"

memory total 120 gb

geometry units bohr
symmetry c1
H 0 0 0
H 0 0 2.57
H 0 0 5.14
H 0 0 7.71
H 0 0 10.28
H 0 0 12.85
H 0 0 15.42
H 0 0 17.99
end

basis spherical
  * library cc-pVTZ
end

scf
thresh 1e-8
end

tce
  2eorb
  2emet 13
  ccsd
  thresh 1e-8
  maxiter 300
end

set tce:print_integrals T
set tce:qorb 8
set tce:qela 4
set tce:qelb 4

# set tce:qducc T
# set tce:nactv 4
# set tce:nonhf T
# set tce:ducc_model 6

set tce:printtol 0.02

task tce
================================================================================

 Output coordinates in a.u. (scale by  1.000000000 to convert to a.u.)

  No.       Tag          Charge          X              Y              Z
 ---- ---------------- ---------- -------------- -------------- --------------
    1 H                    1.0000     0.00000000     0.00000000    -8.99500000
    2 H                    1.0000     0.00000000     0.00000000    -6.42500000
    3 H                    1.0000     0.00000000     0.00000000    -3.85500000
    4 H                    1.0000     0.00000000     0.00000000    -1.28500000
    5 H                    1.0000     0.00000000     0.00000000     1.28500000
    6 H                    1.0000     0.00000000     0.00000000     3.85500000
    7 H                    1.0000     0.00000000     0.00000000     6.42500000
    8 H                    1.0000     0.00000000     0.00000000     8.99500000

         Total SCF energy =     -4.115770720061

 Vector    1  Occ=2.000000D+00  E=-5.752760D-01

 Vector    2  Occ=2.000000D+00  E=-5.299239D-01

 Vector    3  Occ=2.000000D+00  E=-4.566820D-01

 Vector    4  Occ=2.000000D+00  E=-3.623076D-01

 Vector    5  Occ=0.000000D+00  E=-6.040257D-02

 Vector    6  Occ=0.000000D+00  E= 5.913015D-02

 Vector    7  Occ=0.000000D+00  E= 1.811458D-01

 Vector    8  Occ=0.000000D+00  E= 3.000136D-01

 Vector    9  Occ=0.000000D+00  E= 3.409531D-01

 Vector   10  Occ=0.000000D+00  E= 3.747131D-01

 Vector   11  Occ=0.000000D+00  E= 3.971648D-01

 Vector   12  Occ=0.000000D+00  E= 4.491206D-01

 Vector   13  Occ=0.000000D+00  E= 4.832868D-01

 Vector   14  Occ=0.000000D+00  E= 5.556451D-01

       Multipole analysis of the density wrt the origin
       ------------------------------------------------

     L   x y z        total         open         nuclear
     -   - - -        -----         ----         -------
     0   0 0 0     -0.000000      0.000000      8.000000

     1   1 0 0     -0.000000      0.000000      0.000000
     1   0 1 0      0.000000      0.000000      0.000000
     1   0 0 1     -0.000000      0.000000     -0.000000

     2   2 0 0     -8.345538      0.000000      0.000000
     2   1 1 0     -0.000000      0.000000      0.000000
     2   1 0 1      0.000000      0.000000      0.000000
     2   0 2 0     -8.345538      0.000000      0.000000
     2   0 1 1      0.000000      0.000000      0.000000

 CCSD total energy / hartree       =        -4.208227094645634
 Total times  cpu:       75.4s     wall:       75.4s
