============================== echo of input deck ==============================

echo
start H8
title "H8"

memory total 120 gb

geometry units bohr
symmetry c1
H 0 0 0
H 0 0 2.58
H 0 0 5.16
H 0 0 7.74
H 0 0 10.32
H 0 0 12.90
H 0 0 15.48
H 0 0 18.06
end

basis spherical
  * library cc-pVTZ
end

scf
thresh 1e-8
end

tce
  2eorb
  2emet 13
  ccsd
  thresh 1e-8
  maxiter 300
end

set tce:print_integrals T
set tce:qorb 8
set tce:qela 4
set tce:qelb 4

# set tce:qducc T
# set tce:nactv 4
# set tce:nonhf T
# set tce:ducc_model 6

set tce:printtol 0.02

task tce
================================================================================

 Output coordinates in a.u. (scale by  1.000000000 to convert to a.u.)

  No.       Tag          Charge          X              Y              Z
 ---- ---------------- ---------- -------------- -------------- --------------
    1 H                    1.0000     0.00000000     0.00000000    -9.03000000
    2 H                    1.0000     0.00000000     0.00000000    -6.45000000
    3 H                    1.0000     0.00000000     0.00000000    -3.87000000
    4 H                    1.0000     0.00000000     0.00000000    -1.29000000
    5 H                    1.0000     0.00000000     0.00000000     1.29000000
    6 H                    1.0000     0.00000000     0.00000000     3.87000000
    7 H                    1.0000     0.00000000     0.00000000     6.45000000
    8 H                    1.0000     0.00000000     0.00000000     9.03000000

         Total SCF energy =     -4.112164516653

 Vector    1  Occ=2.000000D+00  E=-5.737274D-01

 Vector    2  Occ=2.000000D+00  E=-5.286730D-01

 Vector    3  Occ=2.000000D+00  E=-4.559107D-01

 Vector    4  Occ=2.000000D+00  E=-3.621915D-01

 Vector    5  Occ=0.000000D+00  E=-6.131878D-02

 Vector    6  Occ=0.000000D+00  E= 5.758093D-02

 Vector    7  Occ=0.000000D+00  E= 1.791677D-01

 Vector    8  Occ=0.000000D+00  E= 2.982448D-01

 Vector    9  Occ=0.000000D+00  E= 3.412989D-01

 Vector   10  Occ=0.000000D+00  E= 3.743039D-01

 Vector   11  Occ=0.000000D+00  E= 3.967403D-01

 Vector   12  Occ=0.000000D+00  E= 4.474966D-01

 Vector   13  Occ=0.000000D+00  E= 4.825985D-01

 Vector   14  Occ=0.000000D+00  E= 5.545362D-01

       Multipole analysis of the density wrt the origin
       ------------------------------------------------

     L   x y z        total         open         nuclear
     -   - - -        -----         ----         -------
     0   0 0 0     -0.000000      0.000000      8.000000

     1   1 0 0      0.000000      0.000000      0.000000
     1   0 1 0      0.000000      0.000000      0.000000
     1   0 0 1     -0.000000      0.000000     -0.000000

     2   2 0 0     -8.367033      0.000000      0.000000
     2   1 1 0      0.000000      0.000000      0.000000
     2   1 0 1      0.000000      0.000000      0.000000
     2   0 2 0     -8.367033      0.000000      0.000000
     2   0 1 1     -0.000000      0.000000      0.000000

 CCSD total energy / hartree       =        -4.205995529686591
 Total times  cpu:       75.4s     wall:       75.4s
