============================== echo of input deck ==============================

echo
start H8
title "H8"

memory total 120 gb

geometry units bohr
symmetry c1
H 0 0 0
H 0 0 2.59
H 0 0 5.18
H 0 0 7.77
H 0 0 10.36
H 0 0 12.95
H 0 0 15.54
H 0 0 18.13
end

basis spherical
  * library cc-pVTZ
end

scf
thresh 1e-8
end

tce
  2eorb
  2emet 13
  ccsd
  thresh 1e-8
  maxiter 300
end

set tce:print_integrals T
set tce:qorb 8
set tce:qela 4
set tce:qelb 4

# set tce:qducc T
# set tce:nactv 4
# set tce:nonhf T
# set tce:ducc_model 6

set tce:printtol 0.02

task tce
================================================================================

 Output coordinates in a.u. (scale by  1.000000000 to convert to a.u.)

  No.       Tag          Charge          X              Y              Z
 ---- ---------------- ---------- -------------- -------------- --------------
    1 H                    1.0000     0.00000000     0.00000000    -9.06500000
    2 H                    1.0000     0.00000000     0.00000000    -6.47500000
    3 H                    1.0000     0.00000000     0.00000000    -3.88500000
    4 H                    1.0000     0.00000000     0.00000000    -1.29500000
    5 H                    1.0000     0.00000000     0.00000000     1.29500000
    6 H                    1.0000     0.00000000     0.00000000     3.88500000
    7 H                    1.0000     0.00000000     0.00000000     6.47500000
    8 H                    1.0000     0.00000000     0.00000000     9.06500000

         Total SCF energy =     -4.108554293014

 Vector    1  Occ=2.000000D+00  E=-5.721903D-01

 Vector    2  Occ=2.000000D+00  E=-5.274304D-01

 Vector    3  Occ=2.000000D+00  E=-4.551431D-01

 Vector    4  Occ=2.000000D+00  E=-3.620729D-01

 Vector    5  Occ=0.000000D+00  E=-6.222468D-02

 Vector    6  Occ=0.000000D+00  E= 5.604282D-02

 Vector    7  Occ=0.000000D+00  E= 1.771906D-01

 Vector    8  Occ=0.000000D+00  E= 2.964249D-01

 Vector    9  Occ=0.000000D+00  E= 3.416450D-01

 Vector   10  Occ=0.000000D+00  E= 3.739076D-01

 Vector   11  Occ=0.000000D+00  E= 3.963331D-01

 Vector   12  Occ=0.000000D+00  E= 4.459417D-01

 Vector   13  Occ=0.000000D+00  E= 4.819227D-01

 Vector   14  Occ=0.000000D+00  E= 5.534497D-01

       Multipole analysis of the density wrt the origin
       ------------------------------------------------

     L   x y z        total         open         nuclear
     -   - - -        -----         ----         -------
     0   0 0 0     -0.000000      0.000000      8.000000

     1   1 0 0     -0.000000      0.000000      0.000000
     1   0 1 0      0.000000      0.000000      0.000000
     1   0 0 1      0.000000      0.000000      0.000000

     2   2 0 0     -8.388447      0.000000      0.000000
     2   1 1 0      0.000000      0.000000      0.000000
     2   1 0 1      0.000000      0.000000      0.000000
     2   0 2 0     -8.388447      0.000000      0.000000
     2   0 1 1      0.000000      0.000000      0.000000

 CCSD total energy / hartree       =        -4.203779602197386
 Total times  cpu:       73.1s     wall:       73.1s
