============================== echo of input deck ==============================

echo
start H8
title "H8"

memory total 120 gb

geometry units bohr
symmetry c1
H 0 0 0
H 0 0 2.62
H 0 0 5.24
H 0 0 7.86
H 0 0 10.48
H 0 0 13.10
H 0 0 15.72
H 0 0 18.34
end

basis spherical
  * library cc-pVTZ
end

scf
thresh 1e-8
end

tce
  2eorb
  2emet 13
  ccsd
  thresh 1e-8
  maxiter 300
end

set tce:print_integrals T
set tce:qorb 8
set tce:qela 4
set tce:qelb 4

# set tce:qducc T
# set tce:nactv 4
# set tce:nonhf T
# set tce:ducc_model 6

set tce:printtol 0.02

task tce
================================================================================

 Output coordinates in a.u. (scale by  1.000000000 to convert to a.u.)

  No.       Tag          Charge          X              Y              Z
 ---- ---------------- ---------- -------------- -------------- --------------
    1 H                    1.0000     0.00000000     0.00000000    -9.17000000
    2 H                    1.0000     0.00000000     0.00000000    -6.55000000
    3 H                    1.0000     0.00000000     0.00000000    -3.93000000
    4 H                    1.0000     0.00000000     0.00000000    -1.31000000
    5 H                    1.0000     0.00000000     0.00000000     1.31000000
    6 H                    1.0000     0.00000000     0.00000000     3.93000000
    7 H                    1.0000     0.00000000     0.00000000     6.55000000
    8 H                    1.0000     0.00000000     0.00000000     9.17000000

         Total SCF energy =     -4.097703516376

 Vector    1  Occ=2.000000D+00  E=-5.676473D-01

 Vector    2  Occ=2.000000D+00  E=-5.237522D-01

 Vector    3  Occ=2.000000D+00  E=-4.528619D-01

 Vector    4  Occ=2.000000D+00  E=-3.617031D-01

 Vector    5  Occ=0.000000D+00  E=-6.488185D-02

 Vector    6  Occ=0.000000D+00  E= 5.149521D-02

 Vector    7  Occ=0.000000D+00  E= 1.712709D-01

 Vector    8  Occ=0.000000D+00  E= 2.906712D-01

 Vector    9  Occ=0.000000D+00  E= 3.426852D-01

 Vector   10  Occ=0.000000D+00  E= 3.728046D-01

 Vector   11  Occ=0.000000D+00  E= 3.952105D-01

 Vector   12  Occ=0.000000D+00  E= 4.416772D-01

 Vector   13  Occ=0.000000D+00  E= 4.799655D-01

 Vector   14  Occ=0.000000D+00  E= 5.503111D-01

       Multipole analysis of the density wrt the origin
       ------------------------------------------------

     L   x y z        total         open         nuclear
     -   - - -        -----         ----         -------
     0   0 0 0     -0.000000      0.000000      8.000000

     1   1 0 0      0.000000      0.000000      0.000000
     1   0 1 0      0.000000      0.000000      0.000000
     1   0 0 1      0.000000      0.000000      0.000000

     2   2 0 0     -8.452196      0.000000      0.000000
     2   1 1 0      0.000000      0.000000      0.000000
     2   1 0 1     -0.000000      0.000000      0.000000
     2   0 2 0     -8.452196      0.000000      0.000000
     2   0 1 1     -0.000000      0.000000      0.000000

 CCSD total energy / hartree       =        -4.197211810841144
 Total times  cpu:       74.6s     wall:       74.6s
