============================== echo of input deck ==============================

echo
start H8
title "H8"

memory total 120 gb

geometry units bohr
symmetry c1
H 0 0 0
H 0 0 2.63
H 0 0 5.26
H 0 0 7.89
H 0 0 10.52
H 0 0 13.15
H 0 0 15.78
H 0 0 18.41
end

basis spherical
  * library cc-pVTZ
end

scf
thresh 1e-8
end

tce
  2eorb
  2emet 13
  ccsd
  thresh 1e-8
  maxiter 300
end

set tce:print_integrals T
set tce:qorb 8
set tce:qela 4
set tce:qelb 4

# set tce:qducc T
# set tce:nactv 4
# set tce:nonhf T
# set tce:ducc_model 6

set tce:printtol 0.02

task tce
================================================================================

 Output coordinates in a.u. (scale by  1.000000000 to convert to a.u.)

  No.       Tag          Charge          X              Y              Z
 ---- ---------------- ---------- -------------- -------------- --------------
    1 H                    1.0000     0.00000000     0.00000000    -9.20500000
    2 H                    1.0000     0.00000000     0.00000000    -6.57500000
    3 H                    1.0000     0.00000000     0.00000000    -3.94500000
    4 H                    1.0000     0.00000000     0.00000000    -1.31500000
    5 H                    1.0000     0.00000000     0.00000000     1.31500000
    6 H                    1.0000     0.00000000     0.00000000     3.94500000
    7 H                    1.0000     0.00000000     0.00000000     6.57500000
    8 H                    1.0000     0.00000000     0.00000000     9.20500000

         Total SCF energy =     -4.094081173599

 Vector    1  Occ=2.000000D+00  E=-5.661552D-01

 Vector    2  Occ=2.000000D+00  E=-5.225423D-01

 Vector    3  Occ=2.000000D+00  E=-4.521087D-01

 Vector    4  Occ=2.000000D+00  E=-3.615754D-01

 Vector    5  Occ=0.000000D+00  E=-6.574783D-02

 Vector    6  Occ=0.000000D+00  E= 5.000153D-02

 Vector    7  Occ=0.000000D+00  E= 1.693032D-01

 Vector    8  Occ=0.000000D+00  E= 2.886604D-01

 Vector    9  Occ=0.000000D+00  E= 3.430327D-01

 Vector   10  Occ=0.000000D+00  E= 3.724679D-01

 Vector   11  Occ=0.000000D+00  E= 3.948679D-01

 Vector   12  Occ=0.000000D+00  E= 4.403833D-01

 Vector   13  Occ=0.000000D+00  E= 4.793351D-01

 Vector   14  Occ=0.000000D+00  E= 5.493012D-01

       Multipole analysis of the density wrt the origin
       ------------------------------------------------

     L   x y z        total         open         nuclear
     -   - - -        -----         ----         -------
     0   0 0 0     -0.000000      0.000000      8.000000

     1   1 0 0     -0.000000      0.000000      0.000000
     1   0 1 0      0.000000      0.000000      0.000000
     1   0 0 1      0.000000      0.000000      0.000000

     2   2 0 0     -8.473282      0.000000      0.000000
     2   1 1 0     -0.000000      0.000000      0.000000
     2   1 0 1      0.000000      0.000000      0.000000
     2   0 2 0     -8.473282      0.000000      0.000000
     2   0 1 1      0.000000      0.000000      0.000000

 CCSD total energy / hartree       =        -4.195044424488112
 Total times  cpu:       75.0s     wall:       75.0s
