============================== echo of input deck ==============================

echo
start H8
title "H8"

memory total 120 gb

geometry units bohr
symmetry c1
H 0 0 0
H 0 0 2.65
H 0 0 5.30
H 0 0 7.95
H 0 0 10.60
H 0 0 13.25
H 0 0 15.90
H 0 0 18.55
end

basis spherical
  * library cc-pVTZ
end

scf
thresh 1e-8
end

tce
  2eorb
  2emet 13
  ccsd
  thresh 1e-8
  maxiter 300
end

set tce:print_integrals T
set tce:qorb 8
set tce:qela 4
set tce:qelb 4

# set tce:qducc T
# set tce:nactv 4
# set tce:nonhf T
# set tce:ducc_model 6

set tce:printtol 0.02

task tce
================================================================================

 Output coordinates in a.u. (scale by  1.000000000 to convert to a.u.)

  No.       Tag          Charge          X              Y              Z
 ---- ---------------- ---------- -------------- -------------- --------------
    1 H                    1.0000     0.00000000     0.00000000    -9.27500000
    2 H                    1.0000     0.00000000     0.00000000    -6.62500000
    3 H                    1.0000     0.00000000     0.00000000    -3.97500000
    4 H                    1.0000     0.00000000     0.00000000    -1.32500000
    5 H                    1.0000     0.00000000     0.00000000     1.32500000
    6 H                    1.0000     0.00000000     0.00000000     3.97500000
    7 H                    1.0000     0.00000000     0.00000000     6.62500000
    8 H                    1.0000     0.00000000     0.00000000     9.27500000

         Total SCF energy =     -4.086830571648

 Vector    1  Occ=2.000000D+00  E=-5.632037D-01

 Vector    2  Occ=2.000000D+00  E=-5.201465D-01

 Vector    3  Occ=2.000000D+00  E=-4.506129D-01

 Vector    4  Occ=2.000000D+00  E=-3.613136D-01

 Vector    5  Occ=0.000000D+00  E=-6.745092D-02

 Vector    6  Occ=0.000000D+00  E= 4.704736D-02

 Vector    7  Occ=0.000000D+00  E= 1.653789D-01

 Vector    8  Occ=0.000000D+00  E= 2.845101D-01

 Vector    9  Occ=0.000000D+00  E= 3.437293D-01

 Vector   10  Occ=0.000000D+00  E= 3.718437D-01

 Vector   11  Occ=0.000000D+00  E= 3.942278D-01

 Vector   12  Occ=0.000000D+00  E= 4.379751D-01

 Vector   13  Occ=0.000000D+00  E= 4.781047D-01

 Vector   14  Occ=0.000000D+00  E= 5.473294D-01

       Multipole analysis of the density wrt the origin
       ------------------------------------------------

     L   x y z        total         open         nuclear
     -   - - -        -----         ----         -------
     0   0 0 0     -0.000000      0.000000      8.000000

     1   1 0 0      0.000000      0.000000      0.000000
     1   0 1 0      0.000000      0.000000      0.000000
     1   0 0 1      0.000000      0.000000      0.000000

     2   2 0 0     -8.515207      0.000000      0.000000
     2   1 1 0      0.000000      0.000000      0.000000
     2   1 0 1     -0.000000      0.000000      0.000000
     2   0 2 0     -8.515207      0.000000      0.000000
     2   0 1 1     -0.000000      0.000000      0.000000

 CCSD total energy / hartree       =        -4.190734019266352
 Total times  cpu:       75.5s     wall:       75.5s
