============================== echo of input deck ==============================

echo
start H8
title "H8"

memory total 120 gb

geometry units bohr
symmetry c1
H 0 0 0
H 0 0 2.67
H 0 0 5.34
H 0 0 8.01
H 0 0 10.68
H 0 0 13.35
H 0 0 16.02
H 0 0 18.69
end

basis spherical
  * library cc-pVTZ
end

scf
thresh 1e-8
end

tce
  2eorb
  2emet 13
  ccsd
  thresh 1e-8
  maxiter 300
end

set tce:print_integrals T
set tce:qorb 8
set tce:qela 4
set tce:qelb 4

# set tce:qducc T
# set tce:nactv 4
# set tce:nonhf T
# set tce:ducc_model 6

set tce:printtol 0.02

task tce
================================================================================

 Output coordinates in a.u. (scale by  1.000000000 to convert to a.u.)

  No.       Tag          Charge          X              Y              Z
 ---- ---------------- ---------- -------------- -------------- --------------
    1 H                    1.0000     0.00000000     0.00000000    -9.34500000
    2 H                    1.0000     0.00000000     0.00000000    -6.67500000
    3 H                    1.0000     0.00000000     0.00000000    -4.00500000
    4 H                    1.0000     0.00000000     0.00000000    -1.33500000
    5 H                    1.0000     0.00000000     0.00000000     1.33500000
    6 H                    1.0000     0.00000000     0.00000000     4.00500000
    7 H                    1.0000     0.00000000     0.00000000     6.67500000
    8 H                    1.0000     0.00000000     0.00000000     9.34500000

         Total SCF energy =     -4.079574409394

 Vector    1  Occ=2.000000D+00  E=-5.602949D-01

 Vector    2  Occ=2.000000D+00  E=-5.177818D-01

 Vector    3  Occ=2.000000D+00  E=-4.491313D-01

 Vector    4  Occ=2.000000D+00  E=-3.610438D-01

 Vector    5  Occ=0.000000D+00  E=-6.911635D-02

 Vector    6  Occ=0.000000D+00  E= 4.413724D-02

 Vector    7  Occ=0.000000D+00  E= 1.614722D-01

 Vector    8  Occ=0.000000D+00  E= 2.802019D-01

 Vector    9  Occ=0.000000D+00  E= 3.444282D-01

 Vector   10  Occ=0.000000D+00  E= 3.712873D-01

 Vector   11  Occ=0.000000D+00  E= 3.936451D-01

 Vector   12  Occ=0.000000D+00  E= 4.357920D-01

 Vector   13  Occ=0.000000D+00  E= 4.769124D-01

 Vector   14  Occ=0.000000D+00  E= 5.454158D-01

       Multipole analysis of the density wrt the origin
       ------------------------------------------------

     L   x y z        total         open         nuclear
     -   - - -        -----         ----         -------
     0   0 0 0     -0.000000      0.000000      8.000000

     1   1 0 0      0.000000      0.000000      0.000000
     1   0 1 0     -0.000000      0.000000      0.000000
     1   0 0 1      0.000000      0.000000      0.000000

     2   2 0 0     -8.556805      0.000000      0.000000
     2   1 1 0     -0.000000      0.000000      0.000000
     2   1 0 1     -0.000000      0.000000      0.000000
     2   0 2 0     -8.556805      0.000000      0.000000
     2   0 1 1      0.000000      0.000000      0.000000

 CCSD total energy / hartree       =        -4.186447589470516
 Total times  cpu:       74.0s     wall:       74.0s
