============================== echo of input deck ==============================

echo
start H8
title "H8"

memory total 120 gb

geometry units bohr
symmetry c1
H 0 0 0
H 0 0 2.68
H 0 0 5.36
H 0 0 8.04
H 0 0 10.72
H 0 0 13.40
H 0 0 16.08
H 0 0 18.76
end

basis spherical
  * library cc-pVTZ
end

scf
thresh 1e-8
end

tce
  2eorb
  2emet 13
  ccsd
  thresh 1e-8
  maxiter 300
end

set tce:print_integrals T
set tce:qorb 8
set tce:qela 4
set tce:qelb 4

# set tce:qducc T
# set tce:nactv 4
# set tce:nonhf T
# set tce:ducc_model 6

set tce:printtol 0.02

task tce
================================================================================

 Output coordinates in a.u. (scale by  1.000000000 to convert to a.u.)

  No.       Tag          Charge          X              Y              Z
 ---- ---------------- ---------- -------------- -------------- --------------
    1 H                    1.0000     0.00000000     0.00000000    -9.38000000
    2 H                    1.0000     0.00000000     0.00000000    -6.70000000
    3 H                    1.0000     0.00000000     0.00000000    -4.02000000
    4 H                    1.0000     0.00000000     0.00000000    -1.34000000
    5 H                    1.0000     0.00000000     0.00000000     1.34000000
    6 H                    1.0000     0.00000000     0.00000000     4.02000000
    7 H                    1.0000     0.00000000     0.00000000     6.70000000
    8 H                    1.0000     0.00000000     0.00000000     9.38000000

         Total SCF energy =     -4.075945081432

 Vector    1  Occ=2.000000D+00  E=-5.588562D-01

 Vector    2  Occ=2.000000D+00  E=-5.166111D-01

 Vector    3  Occ=2.000000D+00  E=-4.483958D-01

 Vector    4  Occ=2.000000D+00  E=-3.609060D-01

 Vector    5  Occ=0.000000D+00  E=-6.993525D-02

 Vector    6  Occ=0.000000D+00  E= 4.269862D-02

 Vector    7  Occ=0.000000D+00  E= 1.595264D-01

 Vector    8  Occ=0.000000D+00  E= 2.779941D-01

 Vector    9  Occ=0.000000D+00  E= 3.447786D-01

 Vector   10  Occ=0.000000D+00  E= 3.710349D-01

 Vector   11  Occ=0.000000D+00  E= 3.933742D-01

 Vector   12  Occ=0.000000D+00  E= 4.347792D-01

 Vector   13  Occ=0.000000D+00  E= 4.763298D-01

 Vector   14  Occ=0.000000D+00  E= 5.444788D-01

       Multipole analysis of the density wrt the origin
       ------------------------------------------------

     L   x y z        total         open         nuclear
     -   - - -        -----         ----         -------
     0   0 0 0     -0.000000      0.000000      8.000000

     1   1 0 0      0.000000      0.000000      0.000000
     1   0 1 0     -0.000000      0.000000      0.000000
     1   0 0 1     -0.000000      0.000000      0.000000

     2   2 0 0     -8.577482      0.000000      0.000000
     2   1 1 0     -0.000000      0.000000      0.000000
     2   1 0 1     -0.000000      0.000000      0.000000
     2   0 2 0     -8.577482      0.000000      0.000000
     2   0 1 1      0.000000      0.000000      0.000000

 CCSD total energy / hartree       =        -4.184310552617975
 Total times  cpu:       73.8s     wall:       73.8s
