============================== echo of input deck ==============================

echo
start H8
title "H8"

memory total 120 gb

geometry units bohr
symmetry c1
H 0 0 0
H 0 0 2.69
H 0 0 5.38
H 0 0 8.07
H 0 0 10.76
H 0 0 13.45
H 0 0 16.14
H 0 0 18.83
end

basis spherical
  * library cc-pVTZ
end

scf
thresh 1e-8
end

tce
  2eorb
  2emet 13
  ccsd
  thresh 1e-8
  maxiter 300
end

set tce:print_integrals T
set tce:qorb 8
set tce:qela 4
set tce:qelb 4

# set tce:qducc T
# set tce:nactv 4
# set tce:nonhf T
# set tce:ducc_model 6

set tce:printtol 0.02

task tce
================================================================================

 Output coordinates in a.u. (scale by  1.000000000 to convert to a.u.)

  No.       Tag          Charge          X              Y              Z
 ---- ---------------- ---------- -------------- -------------- --------------
    1 H                    1.0000     0.00000000     0.00000000    -9.41500000
    2 H                    1.0000     0.00000000     0.00000000    -6.72500000
    3 H                    1.0000     0.00000000     0.00000000    -4.03500000
    4 H                    1.0000     0.00000000     0.00000000    -1.34500000
    5 H                    1.0000     0.00000000     0.00000000     1.34500000
    6 H                    1.0000     0.00000000     0.00000000     4.03500000
    7 H                    1.0000     0.00000000     0.00000000     6.72500000
    8 H                    1.0000     0.00000000     0.00000000     9.41500000

         Total SCF energy =     -4.072315351899

 Vector    1  Occ=2.000000D+00  E=-5.574279D-01

 Vector    2  Occ=2.000000D+00  E=-5.154479D-01

 Vector    3  Occ=2.000000D+00  E=-4.476637D-01

 Vector    4  Occ=2.000000D+00  E=-3.607664D-01

 Vector    5  Occ=0.000000D+00  E=-7.074509D-02

 Vector    6  Occ=0.000000D+00  E= 4.127091D-02

 Vector    7  Occ=0.000000D+00  E= 1.575862D-01

 Vector    8  Occ=0.000000D+00  E= 2.757535D-01

 Vector    9  Occ=0.000000D+00  E= 3.451296D-01

 Vector   10  Occ=0.000000D+00  E= 3.707999D-01

 Vector   11  Occ=0.000000D+00  E= 3.931165D-01

 Vector   12  Occ=0.000000D+00  E= 4.338160D-01

 Vector   13  Occ=0.000000D+00  E= 4.757557D-01

 Vector   14  Occ=0.000000D+00  E= 5.435539D-01

       Multipole analysis of the density wrt the origin
       ------------------------------------------------

     L   x y z        total         open         nuclear
     -   - - -        -----         ----         -------
     0   0 0 0     -0.000000      0.000000      8.000000

     1   1 0 0      0.000000      0.000000      0.000000
     1   0 1 0      0.000000      0.000000      0.000000
     1   0 0 1      0.000000      0.000000     -0.000000

     2   2 0 0     -8.598076      0.000000      0.000000
     2   1 1 0     -0.000000      0.000000      0.000000
     2   1 0 1     -0.000000      0.000000      0.000000
     2   0 2 0     -8.598076      0.000000      0.000000
     2   0 1 1      0.000000      0.000000      0.000000

 CCSD total energy / hartree       =        -4.182176368802321
 Total times  cpu:       75.4s     wall:       75.4s
