============================== echo of input deck ==============================

echo
start H8
title "H8"

memory total 120 gb

geometry units bohr
symmetry c1
H 0 0 0
H 0 0 2.70
H 0 0 5.40
H 0 0 8.10
H 0 0 10.80
H 0 0 13.50
H 0 0 16.20
H 0 0 18.90
end

basis spherical
  * library cc-pVTZ
end

scf
thresh 1e-8
end

tce
  2eorb
  2emet 13
  ccsd
  thresh 1e-8
  maxiter 300
end

set tce:print_integrals T
set tce:qorb 8
set tce:qela 4
set tce:qelb 4

# set tce:qducc T
# set tce:nactv 4
# set tce:nonhf T
# set tce:ducc_model 6

set tce:printtol 0.02

task tce
================================================================================

 Output coordinates in a.u. (scale by  1.000000000 to convert to a.u.)

  No.       Tag          Charge          X              Y              Z
 ---- ---------------- ---------- -------------- -------------- --------------
    1 H                    1.0000     0.00000000     0.00000000    -9.45000000
    2 H                    1.0000     0.00000000     0.00000000    -6.75000000
    3 H                    1.0000     0.00000000     0.00000000    -4.05000000
    4 H                    1.0000     0.00000000     0.00000000    -1.35000000
    5 H                    1.0000     0.00000000     0.00000000     1.35000000
    6 H                    1.0000     0.00000000     0.00000000     4.05000000
    7 H                    1.0000     0.00000000     0.00000000     6.75000000
    8 H                    1.0000     0.00000000     0.00000000     9.45000000

         Total SCF energy =     -4.068685532281

 Vector    1  Occ=2.000000D+00  E=-5.560097D-01

 Vector    2  Occ=2.000000D+00  E=-5.142922D-01

 Vector    3  Occ=2.000000D+00  E=-4.469352D-01

 Vector    4  Occ=2.000000D+00  E=-3.606249D-01

 Vector    5  Occ=0.000000D+00  E=-7.154599D-02

 Vector    6  Occ=0.000000D+00  E= 3.985407D-02

 Vector    7  Occ=0.000000D+00  E= 1.556518D-01

 Vector    8  Occ=0.000000D+00  E= 2.734823D-01

 Vector    9  Occ=0.000000D+00  E= 3.454814D-01

 Vector   10  Occ=0.000000D+00  E= 3.705820D-01

 Vector   11  Occ=0.000000D+00  E= 3.928716D-01

 Vector   12  Occ=0.000000D+00  E= 4.329001D-01

 Vector   13  Occ=0.000000D+00  E= 4.751899D-01

 Vector   14  Occ=0.000000D+00  E= 5.426406D-01

       Multipole analysis of the density wrt the origin
       ------------------------------------------------

     L   x y z        total         open         nuclear
     -   - - -        -----         ----         -------
     0   0 0 0     -0.000000      0.000000      8.000000

     1   1 0 0     -0.000000      0.000000      0.000000
     1   0 1 0      0.000000      0.000000      0.000000
     1   0 0 1     -0.000000      0.000000     -0.000000

     2   2 0 0     -8.618589      0.000000      0.000000
     2   1 1 0     -0.000000      0.000000      0.000000
     2   1 0 1     -0.000000      0.000000      0.000000
     2   0 2 0     -8.618589      0.000000      0.000000
     2   0 1 1     -0.000000      0.000000      0.000000

 CCSD total energy / hartree       =        -4.180044253496154
 Total times  cpu:       78.9s     wall:       78.9s
