============================== echo of input deck ==============================

echo
start H8
title "H8"

memory total 120 gb

geometry units bohr
symmetry c1
H 0 0 0
H 0 0 2.71
H 0 0 5.42
H 0 0 8.13
H 0 0 10.84
H 0 0 13.55
H 0 0 16.26
H 0 0 18.97
end

basis spherical
  * library cc-pVTZ
end

scf
thresh 1e-8
end

tce
  2eorb
  2emet 13
  ccsd
  thresh 1e-8
  maxiter 300
end

set tce:print_integrals T
set tce:qorb 8
set tce:qela 4
set tce:qelb 4

# set tce:qducc T
# set tce:nactv 4
# set tce:nonhf T
# set tce:ducc_model 6

set tce:printtol 0.02

task tce
================================================================================

 Output coordinates in a.u. (scale by  1.000000000 to convert to a.u.)

  No.       Tag          Charge          X              Y              Z
 ---- ---------------- ---------- -------------- -------------- --------------
    1 H                    1.0000     0.00000000     0.00000000    -9.48500000
    2 H                    1.0000     0.00000000     0.00000000    -6.77500000
    3 H                    1.0000     0.00000000     0.00000000    -4.06500000
    4 H                    1.0000     0.00000000     0.00000000    -1.35500000
    5 H                    1.0000     0.00000000     0.00000000     1.35500000
    6 H                    1.0000     0.00000000     0.00000000     4.06500000
    7 H                    1.0000     0.00000000     0.00000000     6.77500000
    8 H                    1.0000     0.00000000     0.00000000     9.48500000

         Total SCF energy =     -4.065055925990

 Vector    1  Occ=2.000000D+00  E=-5.546016D-01

 Vector    2  Occ=2.000000D+00  E=-5.131440D-01

 Vector    3  Occ=2.000000D+00  E=-4.462100D-01

 Vector    4  Occ=2.000000D+00  E=-3.604818D-01

 Vector    5  Occ=0.000000D+00  E=-7.233807D-02

 Vector    6  Occ=0.000000D+00  E= 3.844805D-02

 Vector    7  Occ=0.000000D+00  E= 1.537236D-01

 Vector    8  Occ=0.000000D+00  E= 2.711828D-01

 Vector    9  Occ=0.000000D+00  E= 3.458340D-01

 Vector   10  Occ=0.000000D+00  E= 3.703813D-01

 Vector   11  Occ=0.000000D+00  E= 3.926391D-01

 Vector   12  Occ=0.000000D+00  E= 4.320294D-01

 Vector   13  Occ=0.000000D+00  E= 4.746320D-01

 Vector   14  Occ=0.000000D+00  E= 5.417382D-01

       Multipole analysis of the density wrt the origin
       ------------------------------------------------

     L   x y z        total         open         nuclear
     -   - - -        -----         ----         -------
     0   0 0 0     -0.000000      0.000000      8.000000

     1   1 0 0     -0.000000      0.000000      0.000000
     1   0 1 0     -0.000000      0.000000      0.000000
     1   0 0 1      0.000000      0.000000      0.000000

     2   2 0 0     -8.639020      0.000000      0.000000
     2   1 1 0      0.000000      0.000000      0.000000
     2   1 0 1      0.000000      0.000000      0.000000
     2   0 2 0     -8.639020      0.000000      0.000000
     2   0 1 1     -0.000000      0.000000      0.000000

 CCSD total energy / hartree       =        -4.177913549196989
 Total times  cpu:       75.6s     wall:       75.6s
