============================== echo of input deck ==============================

echo
start H8
title "H8"

memory total 120 gb

geometry units bohr
symmetry c1
H 0 0 0
H 0 0 2.74
H 0 0 5.48
H 0 0 8.22
H 0 0 10.96
H 0 0 13.70
H 0 0 16.44
H 0 0 19.18
end

basis spherical
  * library cc-pVTZ
end

scf
thresh 1e-8
end

tce
  2eorb
  2emet 13
  ccsd
  thresh 1e-8
  maxiter 300
end

set tce:print_integrals T
set tce:qorb 8
set tce:qela 4
set tce:qelb 4

# set tce:qducc T
# set tce:nactv 4
# set tce:nonhf T
# set tce:ducc_model 6

set tce:printtol 0.02

task tce
================================================================================

 Output coordinates in a.u. (scale by  1.000000000 to convert to a.u.)

  No.       Tag          Charge          X              Y              Z
 ---- ---------------- ---------- -------------- -------------- --------------
    1 H                    1.0000     0.00000000     0.00000000    -9.59000000
    2 H                    1.0000     0.00000000     0.00000000    -6.85000000
    3 H                    1.0000     0.00000000     0.00000000    -4.11000000
    4 H                    1.0000     0.00000000     0.00000000    -1.37000000
    5 H                    1.0000     0.00000000     0.00000000     1.37000000
    6 H                    1.0000     0.00000000     0.00000000     4.11000000
    7 H                    1.0000     0.00000000     0.00000000     6.85000000
    8 H                    1.0000     0.00000000     0.00000000     9.59000000

         Total SCF energy =     -4.054171297373

 Vector    1  Occ=2.000000D+00  E=-5.504370D-01

 Vector    2  Occ=2.000000D+00  E=-5.097433D-01

 Vector    3  Occ=2.000000D+00  E=-4.440553D-01

 Vector    4  Occ=2.000000D+00  E=-3.600423D-01

 Vector    5  Occ=0.000000D+00  E=-7.466249D-02

 Vector    6  Occ=0.000000D+00  E= 3.429443D-02

 Vector    7  Occ=0.000000D+00  E= 1.479791D-01

 Vector    8  Occ=0.000000D+00  E= 2.641369D-01

 Vector    9  Occ=0.000000D+00  E= 3.468968D-01

 Vector   10  Occ=0.000000D+00  E= 3.698798D-01

 Vector   11  Occ=0.000000D+00  E= 3.920128D-01

 Vector   12  Occ=0.000000D+00  E= 4.296670D-01

 Vector   13  Occ=0.000000D+00  E= 4.730036D-01

 Vector   14  Occ=0.000000D+00  E= 5.390907D-01

       Multipole analysis of the density wrt the origin
       ------------------------------------------------

     L   x y z        total         open         nuclear
     -   - - -        -----         ----         -------
     0   0 0 0     -0.000000      0.000000      8.000000

     1   1 0 0      0.000000      0.000000      0.000000
     1   0 1 0     -0.000000      0.000000      0.000000
     1   0 0 1     -0.000000      0.000000      0.000000

     2   2 0 0     -8.699825      0.000000      0.000000
     2   1 1 0      0.000000      0.000000      0.000000
     2   1 0 1     -0.000000      0.000000      0.000000
     2   0 2 0     -8.699825      0.000000      0.000000
     2   0 1 1      0.000000      0.000000      0.000000

 CCSD total energy / hartree       =        -4.171525243329715
 Total times  cpu:       76.5s     wall:       76.5s
