============================== echo of input deck ==============================

echo
start H8
title "H8"

memory total 120 gb

geometry units bohr
symmetry c1
H 0 0 0
H 0 0 2.75
H 0 0 5.50
H 0 0 8.25
H 0 0 11.00
H 0 0 13.75
H 0 0 16.50
H 0 0 19.25
end

basis spherical
  * library cc-pVTZ
end

scf
thresh 1e-8
end

tce
  2eorb
  2emet 13
  ccsd
  thresh 1e-8
  maxiter 300
end

set tce:print_integrals T
set tce:qorb 8
set tce:qela 4
set tce:qelb 4

# set tce:qducc T
# set tce:nactv 4
# set tce:nonhf T
# set tce:ducc_model 6

set tce:printtol 0.02

task tce
================================================================================

 Output coordinates in a.u. (scale by  1.000000000 to convert to a.u.)

  No.       Tag          Charge          X              Y              Z
 ---- ---------------- ---------- -------------- -------------- --------------
    1 H                    1.0000     0.00000000     0.00000000    -9.62500000
    2 H                    1.0000     0.00000000     0.00000000    -6.87500000
    3 H                    1.0000     0.00000000     0.00000000    -4.12500000
    4 H                    1.0000     0.00000000     0.00000000    -1.37500000
    5 H                    1.0000     0.00000000     0.00000000     1.37500000
    6 H                    1.0000     0.00000000     0.00000000     4.12500000
    7 H                    1.0000     0.00000000     0.00000000     6.87500000
    8 H                    1.0000     0.00000000     0.00000000     9.62500000

         Total SCF energy =     -4.050545418093

 Vector    1  Occ=2.000000D+00  E=-5.490682D-01

 Vector    2  Occ=2.000000D+00  E=-5.086242D-01

 Vector    3  Occ=2.000000D+00  E=-4.433438D-01

 Vector    4  Occ=2.000000D+00  E=-3.598927D-01

 Vector    5  Occ=0.000000D+00  E=-7.542040D-02

 Vector    6  Occ=0.000000D+00  E= 3.293120D-02

 Vector    7  Occ=0.000000D+00  E= 1.460785D-01

 Vector    8  Occ=0.000000D+00  E= 2.617463D-01

 Vector    9  Occ=0.000000D+00  E= 3.472528D-01

 Vector   10  Occ=0.000000D+00  E= 3.697453D-01

 Vector   11  Occ=0.000000D+00  E= 3.918267D-01

 Vector   12  Occ=0.000000D+00  E= 4.289560D-01

 Vector   13  Occ=0.000000D+00  E= 4.724750D-01

 Vector   14  Occ=0.000000D+00  E= 5.382264D-01

       Multipole analysis of the density wrt the origin
       ------------------------------------------------

     L   x y z        total         open         nuclear
     -   - - -        -----         ----         -------
     0   0 0 0     -0.000000      0.000000      8.000000

     1   1 0 0     -0.000000      0.000000      0.000000
     1   0 1 0      0.000000      0.000000      0.000000
     1   0 0 1     -0.000000      0.000000      0.000000

     2   2 0 0     -8.719931      0.000000      0.000000
     2   1 1 0     -0.000000      0.000000      0.000000
     2   1 0 1     -0.000000      0.000000      0.000000
     2   0 2 0     -8.719931      0.000000      0.000000
     2   0 1 1     -0.000000      0.000000      0.000000

 CCSD total energy / hartree       =        -4.169396110300438
 Total times  cpu:       76.5s     wall:       76.5s
