============================== echo of input deck ==============================

echo
start H8
title "H8"

memory total 120 gb

geometry units bohr
symmetry c1
H 0 0 0
H 0 0 2.77
H 0 0 5.54
H 0 0 8.31
H 0 0 11.08
H 0 0 13.85
H 0 0 16.62
H 0 0 19.39
end

basis spherical
  * library cc-pVTZ
end

scf
thresh 1e-8
end

tce
  2eorb
  2emet 13
  ccsd
  thresh 1e-8
  maxiter 300
end

set tce:print_integrals T
set tce:qorb 8
set tce:qela 4
set tce:qelb 4

# set tce:qducc T
# set tce:nactv 4
# set tce:nonhf T
# set tce:ducc_model 6

set tce:printtol 0.02

task tce
================================================================================

 Output coordinates in a.u. (scale by  1.000000000 to convert to a.u.)

  No.       Tag          Charge          X              Y              Z
 ---- ---------------- ---------- -------------- -------------- --------------
    1 H                    1.0000     0.00000000     0.00000000    -9.69500000
    2 H                    1.0000     0.00000000     0.00000000    -6.92500000
    3 H                    1.0000     0.00000000     0.00000000    -4.15500000
    4 H                    1.0000     0.00000000     0.00000000    -1.38500000
    5 H                    1.0000     0.00000000     0.00000000     1.38500000
    6 H                    1.0000     0.00000000     0.00000000     4.15500000
    7 H                    1.0000     0.00000000     0.00000000     6.92500000
    8 H                    1.0000     0.00000000     0.00000000     9.69500000

         Total SCF energy =     -4.043298757058

 Vector    1  Occ=2.000000D+00  E=-5.463593D-01

 Vector    2  Occ=2.000000D+00  E=-5.064071D-01

 Vector    3  Occ=2.000000D+00  E=-4.419310D-01

 Vector    4  Occ=2.000000D+00  E=-3.595889D-01

 Vector    5  Occ=0.000000D+00  E=-7.691152D-02

 Vector    6  Occ=0.000000D+00  E= 3.023636D-02

 Vector    7  Occ=0.000000D+00  E= 1.423001D-01

 Vector    8  Occ=0.000000D+00  E= 2.569148D-01

 Vector    9  Occ=0.000000D+00  E= 3.479679D-01

 Vector   10  Occ=0.000000D+00  E= 3.695234D-01

 Vector   11  Occ=0.000000D+00  E= 3.914862D-01

 Vector   12  Occ=0.000000D+00  E= 4.276375D-01

 Vector   13  Occ=0.000000D+00  E= 4.714379D-01

 Vector   14  Occ=0.000000D+00  E= 5.365222D-01

       Multipole analysis of the density wrt the origin
       ------------------------------------------------

     L   x y z        total         open         nuclear
     -   - - -        -----         ----         -------
     0   0 0 0     -0.000000      0.000000      8.000000

     1   1 0 0     -0.000000      0.000000      0.000000
     1   0 1 0      0.000000      0.000000      0.000000
     1   0 0 1     -0.000000      0.000000     -0.000000

     2   2 0 0     -8.759898      0.000000      0.000000
     2   1 1 0     -0.000000      0.000000      0.000000
     2   1 0 1      0.000000      0.000000      0.000000
     2   0 2 0     -8.759898      0.000000      0.000000
     2   0 1 1      0.000000      0.000000      0.000000

 CCSD total energy / hartree       =        -4.165137677476377
 Total times  cpu:       68.0s     wall:       68.0s
