============================== echo of input deck ==============================

echo
start H8
title "H8"

memory total 120 gb

geometry units bohr
symmetry c1
H 0 0 0
H 0 0 2.80
H 0 0 5.60
H 0 0 8.40
H 0 0 11.20
H 0 0 14.00
H 0 0 16.80
H 0 0 19.60
end

basis spherical
  * library cc-pVTZ
end

scf
thresh 1e-8
end

tce
  2eorb
  2emet 13
  ccsd
  thresh 1e-8
  maxiter 300
end

set tce:print_integrals T
set tce:qorb 8
set tce:qela 4
set tce:qelb 4

# set tce:qducc T
# set tce:nactv 4
# set tce:nonhf T
# set tce:ducc_model 6

set tce:printtol 0.02

task tce
================================================================================

 Output coordinates in a.u. (scale by  1.000000000 to convert to a.u.)

  No.       Tag          Charge          X              Y              Z
 ---- ---------------- ---------- -------------- -------------- --------------
    1 H                    1.0000     0.00000000     0.00000000    -9.80000000
    2 H                    1.0000     0.00000000     0.00000000    -7.00000000
    3 H                    1.0000     0.00000000     0.00000000    -4.20000000
    4 H                    1.0000     0.00000000     0.00000000    -1.40000000
    5 H                    1.0000     0.00000000     0.00000000     1.40000000
    6 H                    1.0000     0.00000000     0.00000000     4.20000000
    7 H                    1.0000     0.00000000     0.00000000     7.00000000
    8 H                    1.0000     0.00000000     0.00000000     9.80000000

         Total SCF energy =     -4.032445272548

 Vector    1  Occ=2.000000D+00  E=-5.423658D-01

 Vector    2  Occ=2.000000D+00  E=-5.031337D-01

 Vector    3  Occ=2.000000D+00  E=-4.398369D-01

 Vector    4  Occ=2.000000D+00  E=-3.591228D-01

 Vector    5  Occ=0.000000D+00  E=-7.908801D-02

 Vector    6  Occ=0.000000D+00  E= 2.627227D-02

 Vector    7  Occ=0.000000D+00  E= 1.366928D-01

 Vector    8  Occ=0.000000D+00  E= 2.495698D-01

 Vector    9  Occ=0.000000D+00  E= 3.490486D-01

 Vector   10  Occ=0.000000D+00  E= 3.693025D-01

 Vector   11  Occ=0.000000D+00  E= 3.910510D-01

 Vector   12  Occ=0.000000D+00  E= 4.258922D-01

 Vector   13  Occ=0.000000D+00  E= 4.699289D-01

 Vector   14  Occ=0.000000D+00  E= 5.340213D-01

       Multipole analysis of the density wrt the origin
       ------------------------------------------------

     L   x y z        total         open         nuclear
     -   - - -        -----         ----         -------
     0   0 0 0     -0.000000      0.000000      8.000000

     1   1 0 0     -0.000000      0.000000      0.000000
     1   0 1 0      0.000000      0.000000      0.000000
     1   0 0 1      0.000000      0.000000      0.000000

     2   2 0 0     -8.819244      0.000000      0.000000
     2   1 1 0     -0.000000      0.000000      0.000000
     2   1 0 1      0.000000      0.000000      0.000000
     2   0 2 0     -8.819244      0.000000      0.000000
     2   0 1 1     -0.000000      0.000000      0.000000

 CCSD total energy / hartree       =        -4.158751005552141
 Total times  cpu:       55.7s     wall:       55.7s
