============================== echo of input deck ==============================

echo
start H8
title "H8"

memory total 120 gb

geometry units bohr
symmetry c1
H 0 0 0
H 0 0 2.83
H 0 0 5.66
H 0 0 8.49
H 0 0 11.32
H 0 0 14.15
H 0 0 16.98
H 0 0 19.81
end

basis spherical
  * library cc-pVTZ
end

scf
thresh 1e-8
end

tce
  2eorb
  2emet 13
  ccsd
  thresh 1e-8
  maxiter 300
end

set tce:print_integrals T
set tce:qorb 8
set tce:qela 4
set tce:qelb 4

# set tce:qducc T
# set tce:nactv 4
# set tce:nonhf T
# set tce:ducc_model 6

set tce:printtol 0.02

task tce
================================================================================

 Output coordinates in a.u. (scale by  1.000000000 to convert to a.u.)

  No.       Tag          Charge          X              Y              Z
 ---- ---------------- ---------- -------------- -------------- --------------
    1 H                    1.0000     0.00000000     0.00000000    -9.90500000
    2 H                    1.0000     0.00000000     0.00000000    -7.07500000
    3 H                    1.0000     0.00000000     0.00000000    -4.24500000
    4 H                    1.0000     0.00000000     0.00000000    -1.41500000
    5 H                    1.0000     0.00000000     0.00000000     1.41500000
    6 H                    1.0000     0.00000000     0.00000000     4.24500000
    7 H                    1.0000     0.00000000     0.00000000     7.07500000
    8 H                    1.0000     0.00000000     0.00000000     9.90500000

         Total SCF energy =     -4.021617267093

 Vector    1  Occ=2.000000D+00  E=-5.384539D-01

 Vector    2  Occ=2.000000D+00  E=-4.999212D-01

 Vector    3  Occ=2.000000D+00  E=-4.377724D-01

 Vector    4  Occ=2.000000D+00  E=-3.586451D-01

 Vector    5  Occ=0.000000D+00  E=-8.119475D-02

 Vector    6  Occ=0.000000D+00  E= 2.240045D-02

 Vector    7  Occ=0.000000D+00  E= 1.311621D-01

 Vector    8  Occ=0.000000D+00  E= 2.421493D-01

 Vector    9  Occ=0.000000D+00  E= 3.501399D-01

 Vector   10  Occ=0.000000D+00  E= 3.692066D-01

 Vector   11  Occ=0.000000D+00  E= 3.906994D-01

 Vector   12  Occ=0.000000D+00  E= 4.243887D-01

 Vector   13  Occ=0.000000D+00  E= 4.684716D-01

 Vector   14  Occ=0.000000D+00  E= 5.315782D-01

       Multipole analysis of the density wrt the origin
       ------------------------------------------------

     L   x y z        total         open         nuclear
     -   - - -        -----         ----         -------
     0   0 0 0     -0.000000      0.000000      8.000000

     1   1 0 0      0.000000      0.000000      0.000000
     1   0 1 0      0.000000      0.000000      0.000000
     1   0 0 1      0.000000      0.000000     -0.000000

     2   2 0 0     -8.877864      0.000000      0.000000
     2   1 1 0      0.000000      0.000000      0.000000
     2   1 0 1      0.000000      0.000000      0.000000
     2   0 2 0     -8.877864      0.000000      0.000000
     2   0 1 1      0.000000      0.000000      0.000000

 CCSD total energy / hartree       =        -4.152371290349149
 Total times  cpu:       53.9s     wall:       53.9s
