============================== echo of input deck ==============================

echo
start H8
title "H8"

memory total 120 gb

geometry units bohr
symmetry c1
H 0 0 0
H 0 0 2.87
H 0 0 5.74
H 0 0 8.61
H 0 0 11.48
H 0 0 14.35
H 0 0 17.22
H 0 0 20.09
end

basis spherical
  * library cc-pVTZ
end

scf
thresh 1e-8
end

tce
  2eorb
  2emet 13
  ccsd
  thresh 1e-8
  maxiter 300
end

set tce:print_integrals T
set tce:qorb 8
set tce:qela 4
set tce:qelb 4

# set tce:qducc T
# set tce:nactv 4
# set tce:nonhf T
# set tce:ducc_model 6

set tce:printtol 0.02

task tce
================================================================================

 Output coordinates in a.u. (scale by  1.000000000 to convert to a.u.)

  No.       Tag          Charge          X              Y              Z
 ---- ---------------- ---------- -------------- -------------- --------------
    1 H                    1.0000     0.00000000     0.00000000   -10.04500000
    2 H                    1.0000     0.00000000     0.00000000    -7.17500000
    3 H                    1.0000     0.00000000     0.00000000    -4.30500000
    4 H                    1.0000     0.00000000     0.00000000    -1.43500000
    5 H                    1.0000     0.00000000     0.00000000     1.43500000
    6 H                    1.0000     0.00000000     0.00000000     4.30500000
    7 H                    1.0000     0.00000000     0.00000000     7.17500000
    8 H                    1.0000     0.00000000     0.00000000    10.04500000

         Total SCF energy =     -4.007229724204

 Vector    1  Occ=2.000000D+00  E=-5.333606D-01

 Vector    2  Occ=2.000000D+00  E=-4.957300D-01

 Vector    3  Occ=2.000000D+00  E=-4.350653D-01

 Vector    4  Occ=2.000000D+00  E=-3.579920D-01

 Vector    5  Occ=0.000000D+00  E=-8.389980D-02

 Vector    6  Occ=0.000000D+00  E= 1.737844D-02

 Vector    7  Occ=0.000000D+00  E= 1.239139D-01

 Vector    8  Occ=0.000000D+00  E= 2.322067D-01

 Vector    9  Occ=0.000000D+00  E= 3.516136D-01

 Vector   10  Occ=0.000000D+00  E= 3.692542D-01

 Vector   11  Occ=0.000000D+00  E= 3.903489D-01

 Vector   12  Occ=0.000000D+00  E= 4.226985D-01

 Vector   13  Occ=0.000000D+00  E= 4.666011D-01

 Vector   14  Occ=0.000000D+00  E= 5.283968D-01

       Multipole analysis of the density wrt the origin
       ------------------------------------------------

     L   x y z        total         open         nuclear
     -   - - -        -----         ----         -------
     0   0 0 0     -0.000000      0.000000      8.000000

     1   1 0 0      0.000000      0.000000      0.000000
     1   0 1 0     -0.000000      0.000000      0.000000
     1   0 0 1      0.000000      0.000000      0.000000

     2   2 0 0     -8.954904      0.000000      0.000000
     2   1 1 0      0.000000      0.000000      0.000000
     2   1 0 1     -0.000000      0.000000      0.000000
     2   0 2 0     -8.954904      0.000000      0.000000
     2   0 1 1     -0.000000      0.000000      0.000000

 CCSD total energy / hartree       =        -4.143893298009594
 Total times  cpu:       56.3s     wall:       56.3s
