============================== echo of input deck ==============================

echo
start H8
title "H8"

memory total 120 gb

geometry units bohr
symmetry c1
H 0 0 0
H 0 0 2.88
H 0 0 5.76
H 0 0 8.64
H 0 0 11.52
H 0 0 14.40
H 0 0 17.28
H 0 0 20.16
end

basis spherical
  * library cc-pVTZ
end

scf
thresh 1e-8
end

tce
  2eorb
  2emet 13
  ccsd
  thresh 1e-8
  maxiter 300
end

set tce:print_integrals T
set tce:qorb 8
set tce:qela 4
set tce:qelb 4

# set tce:qducc T
# set tce:nactv 4
# set tce:nonhf T
# set tce:ducc_model 6

set tce:printtol 0.02

task tce
================================================================================

 Output coordinates in a.u. (scale by  1.000000000 to convert to a.u.)

  No.       Tag          Charge          X              Y              Z
 ---- ---------------- ---------- -------------- -------------- --------------
    1 H                    1.0000     0.00000000     0.00000000   -10.08000000
    2 H                    1.0000     0.00000000     0.00000000    -7.20000000
    3 H                    1.0000     0.00000000     0.00000000    -4.32000000
    4 H                    1.0000     0.00000000     0.00000000    -1.44000000
    5 H                    1.0000     0.00000000     0.00000000     1.44000000
    6 H                    1.0000     0.00000000     0.00000000     4.32000000
    7 H                    1.0000     0.00000000     0.00000000     7.20000000
    8 H                    1.0000     0.00000000     0.00000000    10.08000000

         Total SCF energy =     -4.003643076829

 Vector    1  Occ=2.000000D+00  E=-5.321086D-01

 Vector    2  Occ=2.000000D+00  E=-4.946982D-01

 Vector    3  Occ=2.000000D+00  E=-4.343965D-01

 Vector    4  Occ=2.000000D+00  E=-3.578261D-01

 Vector    5  Occ=0.000000D+00  E=-8.455813D-02

 Vector    6  Occ=0.000000D+00  E= 1.614754D-02

 Vector    7  Occ=0.000000D+00  E= 1.221251D-01

 Vector    8  Occ=0.000000D+00  E= 2.297208D-01

 Vector    9  Occ=0.000000D+00  E= 3.519856D-01

 Vector   10  Occ=0.000000D+00  E= 3.692949D-01

 Vector   11  Occ=0.000000D+00  E= 3.902809D-01

 Vector   12  Occ=0.000000D+00  E= 4.223245D-01

 Vector   13  Occ=0.000000D+00  E= 4.661455D-01

 Vector   14  Occ=0.000000D+00  E= 5.276133D-01

       Multipole analysis of the density wrt the origin
       ------------------------------------------------

     L   x y z        total         open         nuclear
     -   - - -        -----         ----         -------
     0   0 0 0     -0.000000      0.000000      8.000000

     1   1 0 0      0.000000      0.000000      0.000000
     1   0 1 0      0.000000      0.000000      0.000000
     1   0 0 1     -0.000000      0.000000      0.000000

     2   2 0 0     -8.973965      0.000000      0.000000
     2   1 1 0     -0.000000      0.000000      0.000000
     2   1 0 1     -0.000000      0.000000      0.000000
     2   0 2 0     -8.973965      0.000000      0.000000
     2   0 1 1     -0.000000      0.000000      0.000000

 CCSD total energy / hartree       =        -4.141781853157081
 Total times  cpu:       54.4s     wall:       54.4s
