============================== echo of input deck ==============================

echo
start H8
title "H8"

memory total 120 gb

geometry units bohr
symmetry c1
H 0 0 0
H 0 0 2.89
H 0 0 5.78
H 0 0 8.67
H 0 0 11.56
H 0 0 14.45
H 0 0 17.34
H 0 0 20.23
end

basis spherical
  * library cc-pVTZ
end

scf
thresh 1e-8
end

tce
  2eorb
  2emet 13
  ccsd
  thresh 1e-8
  maxiter 300
end

set tce:print_integrals T
set tce:qorb 8
set tce:qela 4
set tce:qelb 4

# set tce:qducc T
# set tce:nactv 4
# set tce:nonhf T
# set tce:ducc_model 6

set tce:printtol 0.02

task tce
================================================================================

 Output coordinates in a.u. (scale by  1.000000000 to convert to a.u.)

  No.       Tag          Charge          X              Y              Z
 ---- ---------------- ---------- -------------- -------------- --------------
    1 H                    1.0000     0.00000000     0.00000000   -10.11500000
    2 H                    1.0000     0.00000000     0.00000000    -7.22500000
    3 H                    1.0000     0.00000000     0.00000000    -4.33500000
    4 H                    1.0000     0.00000000     0.00000000    -1.44500000
    5 H                    1.0000     0.00000000     0.00000000     1.44500000
    6 H                    1.0000     0.00000000     0.00000000     4.33500000
    7 H                    1.0000     0.00000000     0.00000000     7.22500000
    8 H                    1.0000     0.00000000     0.00000000    10.11500000

         Total SCF energy =     -4.000060904796

 Vector    1  Occ=2.000000D+00  E=-5.308649D-01

 Vector    2  Occ=2.000000D+00  E=-4.936727D-01

 Vector    3  Occ=2.000000D+00  E=-4.337309D-01

 Vector    4  Occ=2.000000D+00  E=-3.576593D-01

 Vector    5  Occ=0.000000D+00  E=-8.520947D-02

 Vector    6  Occ=0.000000D+00  E= 1.492635D-02

 Vector    7  Occ=0.000000D+00  E= 1.203458D-01

 Vector    8  Occ=0.000000D+00  E= 2.272370D-01

 Vector    9  Occ=0.000000D+00  E= 3.523591D-01

 Vector   10  Occ=0.000000D+00  E= 3.693463D-01

 Vector   11  Occ=0.000000D+00  E= 3.902203D-01

 Vector   12  Occ=0.000000D+00  E= 4.219680D-01

 Vector   13  Occ=0.000000D+00  E= 4.656944D-01

 Vector   14  Occ=0.000000D+00  E= 5.268342D-01

       Multipole analysis of the density wrt the origin
       ------------------------------------------------

     L   x y z        total         open         nuclear
     -   - - -        -----         ----         -------
     0   0 0 0     -0.000000      0.000000      8.000000

     1   1 0 0      0.000000      0.000000      0.000000
     1   0 1 0      0.000000      0.000000      0.000000
     1   0 0 1     -0.000000      0.000000      0.000000

     2   2 0 0     -8.992947      0.000000      0.000000
     2   1 1 0      0.000000      0.000000      0.000000
     2   1 0 1      0.000000      0.000000      0.000000
     2   0 2 0     -8.992947      0.000000      0.000000
     2   0 1 1      0.000000      0.000000      0.000000

 CCSD total energy / hartree       =        -4.139674600653247
 Total times  cpu:       57.0s     wall:       57.0s
