============================== echo of input deck ==============================

echo
start H8
title "H8"

memory total 120 gb

geometry units bohr
symmetry c1
H 0 0 0
H 0 0 2.91
H 0 0 5.82
H 0 0 8.73
H 0 0 11.64
H 0 0 14.55
H 0 0 17.46
H 0 0 20.37
end

basis spherical
  * library cc-pVTZ
end

scf
thresh 1e-8
end

tce
  2eorb
  2emet 13
  ccsd
  thresh 1e-8
  maxiter 300
end

set tce:print_integrals T
set tce:qorb 8
set tce:qela 4
set tce:qelb 4

# set tce:qducc T
# set tce:nactv 4
# set tce:nonhf T
# set tce:ducc_model 6

set tce:printtol 0.02

task tce
================================================================================

 Output coordinates in a.u. (scale by  1.000000000 to convert to a.u.)

  No.       Tag          Charge          X              Y              Z
 ---- ---------------- ---------- -------------- -------------- --------------
    1 H                    1.0000     0.00000000     0.00000000   -10.18500000
    2 H                    1.0000     0.00000000     0.00000000    -7.27500000
    3 H                    1.0000     0.00000000     0.00000000    -4.36500000
    4 H                    1.0000     0.00000000     0.00000000    -1.45500000
    5 H                    1.0000     0.00000000     0.00000000     1.45500000
    6 H                    1.0000     0.00000000     0.00000000     4.36500000
    7 H                    1.0000     0.00000000     0.00000000     7.27500000
    8 H                    1.0000     0.00000000     0.00000000    10.18500000

         Total SCF energy =     -3.992910706595

 Vector    1  Occ=2.000000D+00  E=-5.284023D-01

 Vector    2  Occ=2.000000D+00  E=-4.916405D-01

 Vector    3  Occ=2.000000D+00  E=-4.324091D-01

 Vector    4  Occ=2.000000D+00  E=-3.573227D-01

 Vector    5  Occ=0.000000D+00  E=-8.649153D-02

 Vector    6  Occ=0.000000D+00  E= 1.251277D-02

 Vector    7  Occ=0.000000D+00  E= 1.168160D-01

 Vector    8  Occ=0.000000D+00  E= 2.222796D-01

 Vector    9  Occ=0.000000D+00  E= 3.531109D-01

 Vector   10  Occ=0.000000D+00  E= 3.694799D-01

 Vector   11  Occ=0.000000D+00  E= 3.901204D-01

 Vector   12  Occ=0.000000D+00  E= 4.213037D-01

 Vector   13  Occ=0.000000D+00  E= 4.648053D-01

 Vector   14  Occ=0.000000D+00  E= 5.252880D-01

       Multipole analysis of the density wrt the origin
       ------------------------------------------------

     L   x y z        total         open         nuclear
     -   - - -        -----         ----         -------
     0   0 0 0     -0.000000      0.000000      8.000000

     1   1 0 0      0.000000      0.000000      0.000000
     1   0 1 0     -0.000000      0.000000      0.000000
     1   0 0 1      0.000000      0.000000      0.000000

     2   2 0 0     -9.030672      0.000000      0.000000
     2   1 1 0     -0.000000      0.000000      0.000000
     2   1 0 1      0.000000      0.000000      0.000000
     2   0 2 0     -9.030672      0.000000      0.000000
     2   0 1 1     -0.000000      0.000000      0.000000

 CCSD total energy / hartree       =        -4.135474669363004
 Total times  cpu:       57.5s     wall:       57.5s
