============================== echo of input deck ==============================

echo
start H8
title "H8"

memory total 120 gb

geometry units bohr
symmetry c1
H 0 0 0
H 0 0 2.92
H 0 0 5.84
H 0 0 8.76
H 0 0 11.68
H 0 0 14.60
H 0 0 17.52
H 0 0 20.44
end

basis spherical
  * library cc-pVTZ
end

scf
thresh 1e-8
end

tce
  2eorb
  2emet 13
  ccsd
  thresh 1e-8
  maxiter 300
end

set tce:print_integrals T
set tce:qorb 8
set tce:qela 4
set tce:qelb 4

# set tce:qducc T
# set tce:nactv 4
# set tce:nonhf T
# set tce:ducc_model 6

set tce:printtol 0.02

task tce
================================================================================

 Output coordinates in a.u. (scale by  1.000000000 to convert to a.u.)

  No.       Tag          Charge          X              Y              Z
 ---- ---------------- ---------- -------------- -------------- --------------
    1 H                    1.0000     0.00000000     0.00000000   -10.22000000
    2 H                    1.0000     0.00000000     0.00000000    -7.30000000
    3 H                    1.0000     0.00000000     0.00000000    -4.38000000
    4 H                    1.0000     0.00000000     0.00000000    -1.46000000
    5 H                    1.0000     0.00000000     0.00000000     1.46000000
    6 H                    1.0000     0.00000000     0.00000000     4.38000000
    7 H                    1.0000     0.00000000     0.00000000     7.30000000
    8 H                    1.0000     0.00000000     0.00000000    10.22000000

         Total SCF energy =     -3.989343025044

 Vector    1  Occ=2.000000D+00  E=-5.271831D-01

 Vector    2  Occ=2.000000D+00  E=-4.906336D-01

 Vector    3  Occ=2.000000D+00  E=-4.317529D-01

 Vector    4  Occ=2.000000D+00  E=-3.571530D-01

 Vector    5  Occ=0.000000D+00  E=-8.712244D-02

 Vector    6  Occ=0.000000D+00  E= 1.132024D-02

 Vector    7  Occ=0.000000D+00  E= 1.150656D-01

 Vector    8  Occ=0.000000D+00  E= 2.198078D-01

 Vector    9  Occ=0.000000D+00  E= 3.534893D-01

 Vector   10  Occ=0.000000D+00  E= 3.695615D-01

 Vector   11  Occ=0.000000D+00  E= 3.900808D-01

 Vector   12  Occ=0.000000D+00  E= 4.209943D-01

 Vector   13  Occ=0.000000D+00  E= 4.643670D-01

 Vector   14  Occ=0.000000D+00  E= 5.245206D-01

       Multipole analysis of the density wrt the origin
       ------------------------------------------------

     L   x y z        total         open         nuclear
     -   - - -        -----         ----         -------
     0   0 0 0     -0.000000      0.000000      8.000000

     1   1 0 0     -0.000000      0.000000      0.000000
     1   0 1 0      0.000000      0.000000      0.000000
     1   0 0 1     -0.000000      0.000000      0.000000

     2   2 0 0     -9.049416      0.000000      0.000000
     2   1 1 0     -0.000000      0.000000      0.000000
     2   1 0 1      0.000000      0.000000      0.000000
     2   0 2 0     -9.049416      0.000000      0.000000
     2   0 1 1      0.000000      0.000000      0.000000

 CCSD total energy / hartree       =        -4.133382994120470
 Total times  cpu:       63.3s     wall:       63.3s
