============================== echo of input deck ==============================

echo
start H8
title "H8"

memory total 120 gb

geometry units bohr
symmetry c1
H 0 0 0
H 0 0 2.95
H 0 0 5.90
H 0 0 8.85
H 0 0 11.80
H 0 0 14.75
H 0 0 17.70
H 0 0 20.65
end

basis spherical
  * library cc-pVTZ
end

scf
thresh 1e-8
end

tce
  2eorb
  2emet 13
  ccsd
  thresh 1e-8
  maxiter 300
end

set tce:print_integrals T
set tce:qorb 8
set tce:qela 4
set tce:qelb 4

# set tce:qducc T
# set tce:nactv 4
# set tce:nonhf T
# set tce:ducc_model 6

set tce:printtol 0.02

task tce
================================================================================

 Output coordinates in a.u. (scale by  1.000000000 to convert to a.u.)

  No.       Tag          Charge          X              Y              Z
 ---- ---------------- ---------- -------------- -------------- --------------
    1 H                    1.0000     0.00000000     0.00000000   -10.32500000
    2 H                    1.0000     0.00000000     0.00000000    -7.37500000
    3 H                    1.0000     0.00000000     0.00000000    -4.42500000
    4 H                    1.0000     0.00000000     0.00000000    -1.47500000
    5 H                    1.0000     0.00000000     0.00000000     1.47500000
    6 H                    1.0000     0.00000000     0.00000000     4.42500000
    7 H                    1.0000     0.00000000     0.00000000     7.37500000
    8 H                    1.0000     0.00000000     0.00000000    10.32500000

         Total SCF energy =     -3.978671650016

 Vector    1  Occ=2.000000D+00  E=-5.235734D-01

 Vector    2  Occ=2.000000D+00  E=-4.876491D-01

 Vector    3  Occ=2.000000D+00  E=-4.298030D-01

 Vector    4  Occ=2.000000D+00  E=-3.566392D-01

 Vector    5  Occ=0.000000D+00  E=-8.897565D-02

 Vector    6  Occ=0.000000D+00  E= 7.798817D-03

 Vector    7  Occ=0.000000D+00  E= 1.098735D-01

 Vector    8  Occ=0.000000D+00  E= 2.124292D-01

 Vector    9  Occ=0.000000D+00  E= 3.546347D-01

 Vector   10  Occ=0.000000D+00  E= 3.698614D-01

 Vector   11  Occ=0.000000D+00  E= 3.900012D-01

 Vector   12  Occ=0.000000D+00  E= 4.201484D-01

 Vector   13  Occ=0.000000D+00  E= 4.630764D-01

 Vector   14  Occ=0.000000D+00  E= 5.222392D-01

       Multipole analysis of the density wrt the origin
       ------------------------------------------------

     L   x y z        total         open         nuclear
     -   - - -        -----         ----         -------
     0   0 0 0     -0.000000      0.000000      8.000000

     1   1 0 0     -0.000000      0.000000      0.000000
     1   0 1 0     -0.000000      0.000000      0.000000
     1   0 0 1      0.000000      0.000000     -0.000000

     2   2 0 0     -9.105177      0.000000      0.000000
     2   1 1 0     -0.000000      0.000000      0.000000
     2   1 0 1      0.000000      0.000000      0.000000
     2   0 2 0     -9.105177      0.000000      0.000000
     2   0 1 1      0.000000      0.000000      0.000000

 CCSD total energy / hartree       =        -4.127147167551548
 Total times  cpu:       58.8s     wall:       58.8s
