============================== echo of input deck ==============================

echo
start H8
title "H8"

memory total 120 gb

geometry units bohr
symmetry c1
H 0 0 0
H 0 0 3.00
H 0 0 6.00
H 0 0 9.00
H 0 0 12.00
H 0 0 15.00
H 0 0 18.00
H 0 0 21.00
end

basis spherical
  * library cc-pVTZ
end

scf
thresh 1e-8
end

tce
  2eorb
  2emet 13
  ccsd
  thresh 1e-8
  maxiter 300
end

set tce:print_integrals T
set tce:qorb 8
set tce:qela 4
set tce:qelb 4

# set tce:qducc T
# set tce:nactv 4
# set tce:nonhf T
# set tce:ducc_model 6

set tce:printtol 0.02

task tce
================================================================================

 Output coordinates in a.u. (scale by  1.000000000 to convert to a.u.)

  No.       Tag          Charge          X              Y              Z
 ---- ---------------- ---------- -------------- -------------- --------------
    1 H                    1.0000     0.00000000     0.00000000   -10.50000000
    2 H                    1.0000     0.00000000     0.00000000    -7.50000000
    3 H                    1.0000     0.00000000     0.00000000    -4.50000000
    4 H                    1.0000     0.00000000     0.00000000    -1.50000000
    5 H                    1.0000     0.00000000     0.00000000     1.50000000
    6 H                    1.0000     0.00000000     0.00000000     4.50000000
    7 H                    1.0000     0.00000000     0.00000000     7.50000000
    8 H                    1.0000     0.00000000     0.00000000    10.50000000

         Total SCF energy =     -3.961000764568

 Vector    1  Occ=2.000000D+00  E=-5.177118D-01

 Vector    2  Occ=2.000000D+00  E=-4.827929D-01

 Vector    3  Occ=2.000000D+00  E=-4.266141D-01

 Vector    4  Occ=2.000000D+00  E=-3.557678D-01

 Vector    5  Occ=0.000000D+00  E=-9.193761D-02

 Vector    6  Occ=0.000000D+00  E= 2.112510D-03

 Vector    7  Occ=0.000000D+00  E= 1.014184D-01

 Vector    8  Occ=0.000000D+00  E= 2.002929D-01

 Vector    9  Occ=0.000000D+00  E= 3.565811D-01

 Vector   10  Occ=0.000000D+00  E= 3.705282D-01

 Vector   11  Occ=0.000000D+00  E= 3.899895D-01

 Vector   12  Occ=0.000000D+00  E= 4.189751D-01

 Vector   13  Occ=0.000000D+00  E= 4.609998D-01

 Vector   14  Occ=0.000000D+00  E= 5.184972D-01

       Multipole analysis of the density wrt the origin
       ------------------------------------------------

     L   x y z        total         open         nuclear
     -   - - -        -----         ----         -------
     0   0 0 0     -0.000000      0.000000      8.000000

     1   1 0 0     -0.000000      0.000000      0.000000
     1   0 1 0     -0.000000      0.000000      0.000000
     1   0 0 1     -0.000000      0.000000      0.000000

     2   2 0 0     -9.196545      0.000000      0.000000
     2   1 1 0     -0.000000      0.000000      0.000000
     2   1 0 1     -0.000000      0.000000      0.000000
     2   0 2 0     -9.196545      0.000000      0.000000
     2   0 1 1      0.000000      0.000000      0.000000

 CCSD total energy / hartree       =        -4.116914463712170
 Total times  cpu:       62.3s     wall:       62.3s
