============================== echo of input deck ==============================
 echo
 start H2O
 title "H2O"

 memory total 24 gb

 geometry units angstrom
 symmetry c1
   zmatrix
     O
     H1 O 0.97551
     H2 O 0.97551 H1 100.35
   end
 end

 basis spherical
   * library cc-pVTZ
 end

 tce
   2eorb
   2emet 13
   ccsd
   maxiter 300
 end

# set tce:print_integrals T
# set tce:qorb 8
# set tce:qela 5
# set tce:qelb 5

 set tce:qducc T
 set tce:nactv 3
 set tce:nonhf T
 set tce:ducc_model 6

 set tce:printtol 0.02

 task tce
================================================================================

 Output coordinates in angstroms (scale by  1.889725989 to convert to a.u.)

  No.       Tag          Charge          X              Y              Z
 ---- ---------------- ---------- -------------- -------------- --------------
    1 O                    8.0000    -0.09596371     0.00000000    -0.08002491
    2 H1                   1.0000    -0.09596371     0.00000000     0.89548509
    3 H2                   1.0000     0.86367340     0.00000000    -0.25528577

         Total SCF energy =    -76.054782576463

 Vector    2  Occ=2.000000D+00  E=-1.339536D+00

 Vector    3  Occ=2.000000D+00  E=-6.920227D-01

 Vector    4  Occ=2.000000D+00  E=-5.825021D-01

 Vector    5  Occ=2.000000D+00  E=-5.044456D-01

 Vector    6  Occ=0.000000D+00  E= 1.395057D-01

 Vector    7  Occ=0.000000D+00  E= 2.031248D-01

 Vector    8  Occ=0.000000D+00  E= 5.299172D-01

 Vector    9  Occ=0.000000D+00  E= 6.056212D-01

 Vector   10  Occ=0.000000D+00  E= 6.691836D-01

 Vector   11  Occ=0.000000D+00  E= 7.782641D-01

 Vector   12  Occ=0.000000D+00  E= 7.861818D-01

 Vector   13  Occ=0.000000D+00  E= 8.076086D-01

 Vector   14  Occ=0.000000D+00  E= 8.663088D-01

 Vector   15  Occ=0.000000D+00  E= 9.362582D-01

       Multipole analysis of the density wrt the origin
       ------------------------------------------------

     L   x y z        total         open         nuclear
     -   - - -        -----         ----         -------
     0   0 0 0     -0.000000      0.000000     10.000000

     1   1 0 0      0.636083      0.000000      0.000000
     1   0 1 0     -0.000000      0.000000      0.000000
     1   0 0 1      0.530435      0.000000      0.000000

     2   2 0 0     -3.918175      0.000000      2.959745
     2   1 1 0     -0.000000      0.000000      0.000000
     2   1 0 1     -0.596253      0.000000     -0.874845
     2   0 2 0     -5.450232      0.000000      0.000000
     2   0 1 1      0.000000      0.000000      0.000000

 CCSD total energy / hartree       =       -76.337065861175446
 Total times  cpu:      634.5s     wall:      634.5s
