============================== echo of input deck ==============================
 echo
 start H2O
 title "H2O"

 memory total 24 gb

 geometry units angstrom
 symmetry c1
   zmatrix
     O
     H1 O 0.97551
     H2 O 0.97551 H1 100.95
   end
 end

 basis spherical
   * library cc-pVTZ
 end

 tce
   2eorb
   2emet 13
   ccsd
   maxiter 300
 end

# set tce:print_integrals T
# set tce:qorb 8
# set tce:qela 5
# set tce:qelb 5

 set tce:qducc T
 set tce:nactv 3
 set tce:nonhf T
 set tce:ducc_model 6

 set tce:printtol 0.02

 task tce
================================================================================

 Output coordinates in angstroms (scale by  1.889725989 to convert to a.u.)

  No.       Tag          Charge          X              Y              Z
 ---- ---------------- ---------- -------------- -------------- --------------
    1 O                    8.0000    -0.09577492     0.00000000    -0.07902096
    2 H1                   1.0000    -0.09577492     0.00000000     0.89648904
    3 H2                   1.0000     0.86197428     0.00000000    -0.26432132

         Total SCF energy =    -76.054916172451

 Vector    2  Occ=2.000000D+00  E=-1.339079D+00

 Vector    3  Occ=2.000000D+00  E=-6.931861D-01

 Vector    4  Occ=2.000000D+00  E=-5.813076D-01

 Vector    5  Occ=2.000000D+00  E=-5.042457D-01

 Vector    6  Occ=0.000000D+00  E= 1.396359D-01

 Vector    7  Occ=0.000000D+00  E= 2.030104D-01

 Vector    8  Occ=0.000000D+00  E= 5.308337D-01

 Vector    9  Occ=0.000000D+00  E= 6.036765D-01

 Vector   10  Occ=0.000000D+00  E= 6.695012D-01

 Vector   11  Occ=0.000000D+00  E= 7.807781D-01

 Vector   12  Occ=0.000000D+00  E= 7.863163D-01

 Vector   13  Occ=0.000000D+00  E= 8.072512D-01

 Vector   14  Occ=0.000000D+00  E= 8.649820D-01

 Vector   15  Occ=0.000000D+00  E= 9.386975D-01

       Multipole analysis of the density wrt the origin
       ------------------------------------------------

     L   x y z        total         open         nuclear
     -   - - -        -----         ----         -------
     0   0 0 0     -0.000000      0.000000     10.000000

     1   1 0 0      0.636031      0.000000      0.000000
     1   0 1 0      0.000000      0.000000      0.000000
     1   0 0 1      0.524770      0.000000     -0.000000

     2   2 0 0     -3.923983      0.000000      2.948111
     2   1 1 0     -0.000000      0.000000      0.000000
     2   1 0 1     -0.611700      0.000000     -0.904028
     2   0 2 0     -5.450675      0.000000      0.000000
     2   0 1 1      0.000000      0.000000      0.000000

 CCSD total energy / hartree       =       -76.337144513698590
 Total times  cpu:      656.9s     wall:      656.9s
