============================== echo of input deck ==============================
 echo
 start H2O
 title "H2O"

 memory total 24 gb

 geometry units angstrom
 symmetry c1
   zmatrix
     O
     H1 O 0.97551
     H2 O 0.97551 H1 100.45
   end
 end

 basis spherical
   * library cc-pVTZ
 end

 tce
   2eorb
   2emet 13
   ccsd
   maxiter 300
 end

# set tce:print_integrals T
# set tce:qorb 8
# set tce:qela 5
# set tce:qelb 5

 set tce:qducc T
 set tce:nactv 3
 set tce:nonhf T
 set tce:ducc_model 6

 set tce:printtol 0.02

 task tce
================================================================================

 Output coordinates in angstroms (scale by  1.889725989 to convert to a.u.)

  No.       Tag          Charge          X              Y              Z
 ---- ---------------- ---------- -------------- -------------- --------------
    1 O                    8.0000    -0.09593298     0.00000000    -0.07985745
    2 H1                   1.0000    -0.09593298     0.00000000     0.89565255
    3 H2                   1.0000     0.86339679     0.00000000    -0.25679292

         Total SCF energy =    -76.054806242588

 Vector    2  Occ=2.000000D+00  E=-1.339460D+00

 Vector    3  Occ=2.000000D+00  E=-6.922173D-01

 Vector    4  Occ=2.000000D+00  E=-5.823029D-01

 Vector    5  Occ=2.000000D+00  E=-5.044124D-01

 Vector    6  Occ=0.000000D+00  E= 1.395277D-01

 Vector    7  Occ=0.000000D+00  E= 2.031057D-01

 Vector    8  Occ=0.000000D+00  E= 5.300687D-01

 Vector    9  Occ=0.000000D+00  E= 6.053004D-01

 Vector   10  Occ=0.000000D+00  E= 6.692351D-01

 Vector   11  Occ=0.000000D+00  E= 7.786762D-01

 Vector   12  Occ=0.000000D+00  E= 7.862042D-01

 Vector   13  Occ=0.000000D+00  E= 8.075491D-01

 Vector   14  Occ=0.000000D+00  E= 8.660870D-01

 Vector   15  Occ=0.000000D+00  E= 9.366640D-01

       Multipole analysis of the density wrt the origin
       ------------------------------------------------

     L   x y z        total         open         nuclear
     -   - - -        -----         ----         -------
     0   0 0 0     -0.000000      0.000000     10.000000

     1   1 0 0      0.636078      0.000000      0.000000
     1   0 1 0      0.000000      0.000000      0.000000
     1   0 0 1      0.529490      0.000000      0.000000

     2   2 0 0     -3.919120      0.000000      2.957849
     2   1 1 0      0.000000      0.000000      0.000000
     2   1 0 1     -0.598837      0.000000     -0.879728
     2   0 2 0     -5.450305      0.000000      0.000000
     2   0 1 1     -0.000000      0.000000      0.000000

 CCSD total energy / hartree       =       -76.337080282529740
 Total times  cpu:      674.3s     wall:      674.3s
