============================== echo of input deck ==============================
 echo
 start H2O
 title "H2O"

 memory total 24 gb

 geometry units angstrom
 symmetry c1
   zmatrix
     O
     H1 O 0.97551
     H2 O 0.97551 H1 100.15
   end
 end

 basis spherical
   * library cc-pVTZ
 end

 tce
   2eorb
   2emet 13
   ccsd
   maxiter 300
 end

# set tce:print_integrals T
# set tce:qorb 8
# set tce:qela 5
# set tce:qelb 5

 set tce:qducc T
 set tce:nactv 3
 set tce:nonhf T
 set tce:ducc_model 6

 set tce:printtol 0.02

 task tce
================================================================================

 Output coordinates in angstroms (scale by  1.889725989 to convert to a.u.)

  No.       Tag          Charge          X              Y              Z
 ---- ---------------- ---------- -------------- -------------- --------------
    1 O                    8.0000    -0.09602430     0.00000000    -0.08036000
    2 H1                   1.0000    -0.09602430     0.00000000     0.89515000
    3 H2                   1.0000     0.86421874     0.00000000    -0.25227003

         Total SCF energy =    -76.054733558171

 Vector    2  Occ=2.000000D+00  E=-1.339689D+00

 Vector    3  Occ=2.000000D+00  E=-6.916329D-01

 Vector    4  Occ=2.000000D+00  E=-5.829007D-01

 Vector    5  Occ=2.000000D+00  E=-5.045120D-01

 Vector    6  Occ=0.000000D+00  E= 1.394612D-01

 Vector    7  Occ=0.000000D+00  E= 2.031629D-01

 Vector    8  Occ=0.000000D+00  E= 5.296159D-01

 Vector    9  Occ=0.000000D+00  E= 6.062588D-01

 Vector   10  Occ=0.000000D+00  E= 6.690821D-01

 Vector   11  Occ=0.000000D+00  E= 7.774484D-01

 Vector   12  Occ=0.000000D+00  E= 7.861368D-01

 Vector   13  Occ=0.000000D+00  E= 8.077274D-01

 Vector   14  Occ=0.000000D+00  E= 8.667529D-01

 Vector   15  Occ=0.000000D+00  E= 9.354474D-01

       Multipole analysis of the density wrt the origin
       ------------------------------------------------

     L   x y z        total         open         nuclear
     -   - - -        -----         ----         -------
     0   0 0 0     -0.000000      0.000000     10.000000

     1   1 0 0      0.636087      0.000000     -0.000000
     1   0 1 0      0.000000      0.000000      0.000000
     1   0 0 1      0.532323      0.000000     -0.000000

     2   2 0 0     -3.916313      0.000000      2.963484
     2   1 1 0      0.000000      0.000000      0.000000
     2   1 0 1     -0.591072      0.000000     -0.865057
     2   0 2 0     -5.450086      0.000000      0.000000
     2   0 1 1     -0.000000      0.000000      0.000000

 CCSD total energy / hartree       =       -76.337035437167458
 Total times  cpu:      641.9s     wall:      641.9s
