============================== echo of input deck ==============================
 echo
 start H2O
 title "H2O"

 memory total 24 gb

 geometry units angstrom
 symmetry c1
   zmatrix
     O
     H1 O 0.97551
     H2 O 0.97551 H1 100.85
   end
 end

 basis spherical
   * library cc-pVTZ
 end

 tce
   2eorb
   2emet 13
   ccsd
   maxiter 300
 end

# set tce:print_integrals T
# set tce:qorb 8
# set tce:qela 5
# set tce:qelb 5

 set tce:qducc T
 set tce:nactv 3
 set tce:nonhf T
 set tce:ducc_model 6

 set tce:printtol 0.02

 task tce
================================================================================

 Output coordinates in angstroms (scale by  1.889725989 to convert to a.u.)

  No.       Tag          Charge          X              Y              Z
 ---- ---------------- ---------- -------------- -------------- --------------
    1 O                    8.0000    -0.09580712     0.00000000    -0.07918815
    2 H1                   1.0000    -0.09580712     0.00000000     0.89632185
    3 H2                   1.0000     0.86226404     0.00000000    -0.26281664

         Total SCF energy =    -76.054895304113

 Vector    2  Occ=2.000000D+00  E=-1.339155D+00

 Vector    3  Occ=2.000000D+00  E=-6.929928D-01

 Vector    4  Occ=2.000000D+00  E=-5.815065D-01

 Vector    5  Occ=2.000000D+00  E=-5.042791D-01

 Vector    6  Occ=0.000000D+00  E= 1.396145D-01

 Vector    7  Occ=0.000000D+00  E= 2.030295D-01

 Vector    8  Occ=0.000000D+00  E= 5.306796D-01

 Vector    9  Occ=0.000000D+00  E= 6.040038D-01

 Vector   10  Occ=0.000000D+00  E= 6.694469D-01

 Vector   11  Occ=0.000000D+00  E= 7.803522D-01

 Vector   12  Occ=0.000000D+00  E= 7.862939D-01

 Vector   13  Occ=0.000000D+00  E= 8.073108D-01

 Vector   14  Occ=0.000000D+00  E= 8.652025D-01

 Vector   15  Occ=0.000000D+00  E= 9.382903D-01

       Multipole analysis of the density wrt the origin
       ------------------------------------------------

     L   x y z        total         open         nuclear
     -   - - -        -----         ----         -------
     0   0 0 0     -0.000000      0.000000     10.000000

     1   1 0 0      0.636044      0.000000      0.000000
     1   0 1 0     -0.000000      0.000000      0.000000
     1   0 0 1      0.525714      0.000000      0.000000

     2   2 0 0     -3.922992      0.000000      2.950093
     2   1 1 0     -0.000000      0.000000      0.000000
     2   1 0 1     -0.609136      0.000000     -0.899183
     2   0 2 0     -5.450600      0.000000      0.000000
     2   0 1 1     -0.000000      0.000000      0.000000

 CCSD total energy / hartree       =       -76.337132714966117
 Total times  cpu:      800.5s     wall:      800.5s
