============================== echo of input deck ==============================
 echo
 start H2O
 title "H2O"

 memory total 24 gb

 geometry units angstrom
 symmetry c1
   zmatrix
     O
     H1 O 0.97551
     H2 O 0.97551 H1 101.75
   end
 end

 basis spherical
   * library cc-pVTZ
 end

 tce
   2eorb
   2emet 13
   ccsd
   maxiter 300
 end

# set tce:print_integrals T
# set tce:qorb 8
# set tce:qela 5
# set tce:qelb 5

 set tce:qducc T
 set tce:nactv 3
 set tce:nonhf T
 set tce:ducc_model 6

 set tce:printtol 0.02

 task tce
================================================================================

 Output coordinates in angstroms (scale by  1.889725989 to convert to a.u.)

  No.       Tag          Charge          X              Y              Z
 ---- ---------------- ---------- -------------- -------------- --------------
    1 O                    8.0000    -0.09550686     0.00000000    -0.07768554
    2 H1                   1.0000    -0.09550686     0.00000000     0.89782446
    3 H2                   1.0000     0.85956178     0.00000000    -0.27634011

         Total SCF energy =    -76.055063117319

 Vector    2  Occ=2.000000D+00  E=-1.338474D+00

 Vector    3  Occ=2.000000D+00  E=-6.947228D-01

 Vector    4  Occ=2.000000D+00  E=-5.797176D-01

 Vector    5  Occ=2.000000D+00  E=-5.039774D-01

 Vector    6  Occ=0.000000D+00  E= 1.398019D-01

 Vector    7  Occ=0.000000D+00  E= 2.028581D-01

 Vector    8  Occ=0.000000D+00  E= 5.320844D-01

 Vector    9  Occ=0.000000D+00  E= 6.010159D-01

 Vector   10  Occ=0.000000D+00  E= 6.699563D-01

 Vector   11  Occ=0.000000D+00  E= 7.842812D-01

 Vector   12  Occ=0.000000D+00  E= 7.864946D-01

 Vector   13  Occ=0.000000D+00  E= 8.067720D-01

 Vector   14  Occ=0.000000D+00  E= 8.632263D-01

 Vector   15  Occ=0.000000D+00  E= 9.419656D-01

       Multipole analysis of the density wrt the origin
       ------------------------------------------------

     L   x y z        total         open         nuclear
     -   - - -        -----         ----         -------
     0   0 0 0     -0.000000      0.000000     10.000000

     1   1 0 0      0.635872      0.000000      0.000000
     1   0 1 0     -0.000000      0.000000      0.000000
     1   0 0 1      0.517220      0.000000      0.000000

     2   2 0 0     -3.932238      0.000000      2.931631
     2   1 1 0      0.000000      0.000000      0.000000
     2   1 0 1     -0.632066      0.000000     -0.942489
     2   0 2 0     -5.451280      0.000000      0.000000
     2   0 1 1     -0.000000      0.000000      0.000000

 CCSD total energy / hartree       =       -76.337220168988239
 Total times  cpu:      650.8s     wall:      650.8s
