============================== echo of input deck ==============================
 echo
 start H2O
 title "H2O"

 memory total 24 gb

 geometry units angstrom
 symmetry c1
   zmatrix
     O
     H1 O 0.97551
     H2 O 0.97551 H1 101.30
   end
 end

 basis spherical
   * library cc-pVTZ
 end

 tce
   2eorb
   2emet 13
   ccsd
   maxiter 300
 end

# set tce:print_integrals T
# set tce:qorb 8
# set tce:qela 5
# set tce:qelb 5

 set tce:qducc T
 set tce:nactv 3
 set tce:nonhf T
 set tce:ducc_model 6

 set tce:printtol 0.02

 task tce
================================================================================

 Output coordinates in angstroms (scale by  1.889725989 to convert to a.u.)

  No.       Tag          Charge          X              Y              Z
 ---- ---------------- ---------- -------------- -------------- --------------
    1 O                    8.0000    -0.09565994     0.00000000    -0.07843626
    2 H1                   1.0000    -0.09565994     0.00000000     0.89707374
    3 H2                   1.0000     0.86093947     0.00000000    -0.26958368

         Total SCF energy =    -76.054984827342

 Vector    2  Occ=2.000000D+00  E=-1.338814D+00

 Vector    3  Occ=2.000000D+00  E=-6.938605D-01

 Vector    4  Occ=2.000000D+00  E=-5.806116D-01

 Vector    5  Occ=2.000000D+00  E=-5.041286D-01

 Vector    6  Occ=0.000000D+00  E= 1.397096D-01

 Vector    7  Occ=0.000000D+00  E= 2.029437D-01

 Vector    8  Occ=0.000000D+00  E= 5.313768D-01

 Vector    9  Occ=0.000000D+00  E= 6.025215D-01

 Vector   10  Occ=0.000000D+00  E= 6.696958D-01

 Vector   11  Occ=0.000000D+00  E= 7.822898D-01

 Vector   12  Occ=0.000000D+00  E= 7.863944D-01

 Vector   13  Occ=0.000000D+00  E= 8.070420D-01

 Vector   14  Occ=0.000000D+00  E= 8.642120D-01

 Vector   15  Occ=0.000000D+00  E= 9.401252D-01

       Multipole analysis of the density wrt the origin
       ------------------------------------------------

     L   x y z        total         open         nuclear
     -   - - -        -----         ----         -------
     0   0 0 0     -0.000000      0.000000     10.000000

     1   1 0 0      0.635975      0.000000      0.000000
     1   0 1 0      0.000000      0.000000      0.000000
     1   0 0 1      0.521467      0.000000     -0.000000

     2   2 0 0     -3.927523      0.000000      2.941036
     2   1 1 0      0.000000      0.000000      0.000000
     2   1 0 1     -0.620643      0.000000     -0.920919
     2   0 2 0     -5.450938      0.000000      0.000000
     2   0 1 1     -0.000000      0.000000      0.000000

 CCSD total energy / hartree       =       -76.337181701846845
 Total times  cpu:      650.4s     wall:      650.4s
