============================== echo of input deck ==============================
 echo
 start H2O
 title "H2O"

 memory total 24 gb

 geometry units angstrom
 symmetry c1
   zmatrix
     O
     H1 O 0.97551
     H2 O 0.97551 H1 101.25
   end
 end

 basis spherical
   * library cc-pVTZ
 end

 tce
   2eorb
   2emet 13
   ccsd
   maxiter 300
 end

# set tce:print_integrals T
# set tce:qorb 8
# set tce:qela 5
# set tce:qelb 5

 set tce:qducc T
 set tce:nactv 3
 set tce:nonhf T
 set tce:ducc_model 6

 set tce:printtol 0.02

 task tce
================================================================================

 Output coordinates in angstroms (scale by  1.889725989 to convert to a.u.)

  No.       Tag          Charge          X              Y              Z
 ---- ---------------- ---------- -------------- -------------- --------------
    1 O                    8.0000    -0.09567658     0.00000000    -0.07851974
    2 H1                   1.0000    -0.09567658     0.00000000     0.89699026
    3 H2                   1.0000     0.86108926     0.00000000    -0.26883230

         Total SCF energy =    -76.054975436304

 Vector    2  Occ=2.000000D+00  E=-1.338852D+00

 Vector    3  Occ=2.000000D+00  E=-6.937643D-01

 Vector    4  Occ=2.000000D+00  E=-5.807110D-01

 Vector    5  Occ=2.000000D+00  E=-5.041454D-01

 Vector    6  Occ=0.000000D+00  E= 1.396992D-01

 Vector    7  Occ=0.000000D+00  E= 2.029533D-01

 Vector    8  Occ=0.000000D+00  E= 5.312989D-01

 Vector    9  Occ=0.000000D+00  E= 6.026874D-01

 Vector   10  Occ=0.000000D+00  E= 6.696675D-01

 Vector   11  Occ=0.000000D+00  E= 7.820718D-01

 Vector   12  Occ=0.000000D+00  E= 7.863832D-01

 Vector   13  Occ=0.000000D+00  E= 8.070719D-01

 Vector   14  Occ=0.000000D+00  E= 8.643218D-01

 Vector   15  Occ=0.000000D+00  E= 9.399211D-01

       Multipole analysis of the density wrt the origin
       ------------------------------------------------

     L   x y z        total         open         nuclear
     -   - - -        -----         ----         -------
     0   0 0 0     -0.000000      0.000000     10.000000

     1   1 0 0      0.635984      0.000000      0.000000
     1   0 1 0      0.000000      0.000000      0.000000
     1   0 0 1      0.521939      0.000000      0.000000

     2   2 0 0     -3.927011      0.000000      2.942060
     2   1 1 0      0.000000      0.000000      0.000000
     2   1 0 1     -0.619369      0.000000     -0.918512
     2   0 2 0     -5.450900      0.000000      0.000000
     2   0 1 1     -0.000000      0.000000      0.000000

 CCSD total energy / hartree       =       -76.337176779659302
 Total times  cpu:      664.6s     wall:      664.6s
