============================== echo of input deck ==============================
 echo
 start H2O
 title "H2O"

 memory total 24 gb

 geometry units angstrom
 symmetry c1
   zmatrix
     O
     H1 O 0.97551
     H2 O 0.97551 H1 102.20
   end
 end

 basis spherical
   * library cc-pVTZ
 end

 tce
   2eorb
   2emet 13
   ccsd
   maxiter 300
 end

# set tce:print_integrals T
# set tce:qorb 8
# set tce:qela 5
# set tce:qelb 5

 set tce:qducc T
 set tce:nactv 3
 set tce:nonhf T
 set tce:ducc_model 6

 set tce:printtol 0.02

 task tce
================================================================================

 Output coordinates in angstroms (scale by  1.889725989 to convert to a.u.)

  No.       Tag          Charge          X              Y              Z
 ---- ---------------- ---------- -------------- -------------- --------------
    1 O                    8.0000    -0.09534790     0.00000000    -0.07693605
    2 H1                   1.0000    -0.09534790     0.00000000     0.89857395
    3 H2                   1.0000     0.85813108     0.00000000    -0.28308551

         Total SCF energy =    -76.055130242885

 Vector    2  Occ=2.000000D+00  E=-1.338136D+00

 Vector    3  Occ=2.000000D+00  E=-6.955799D-01

 Vector    4  Occ=2.000000D+00  E=-5.788247D-01

 Vector    5  Occ=2.000000D+00  E=-5.038255D-01

 Vector    6  Occ=0.000000D+00  E= 1.398915D-01

 Vector    7  Occ=0.000000D+00  E= 2.027725D-01

 Vector    8  Occ=0.000000D+00  E= 5.328022D-01

 Vector    9  Occ=0.000000D+00  E= 5.994891D-01

 Vector   10  Occ=0.000000D+00  E= 6.702288D-01

 Vector   11  Occ=0.000000D+00  E= 7.863250D-01

 Vector   12  Occ=0.000000D+00  E= 7.865944D-01

 Vector   13  Occ=0.000000D+00  E= 8.065008D-01

 Vector   14  Occ=0.000000D+00  E= 8.622455D-01

 Vector   15  Occ=0.000000D+00  E= 9.438110D-01

       Multipole analysis of the density wrt the origin
       ------------------------------------------------

     L   x y z        total         open         nuclear
     -   - - -        -----         ----         -------
     0   0 0 0     -0.000000      0.000000     10.000000

     1   1 0 0      0.635737      0.000000      0.000000
     1   0 1 0     -0.000000      0.000000      0.000000
     1   0 0 1      0.512975      0.000000      0.000000

     2   2 0 0     -3.937135      0.000000      2.921880
     2   1 1 0     -0.000000      0.000000      0.000000
     2   1 0 1     -0.643401      0.000000     -0.963888
     2   0 2 0     -5.451628      0.000000      0.000000
     2   0 1 1      0.000000      0.000000      0.000000

 CCSD total energy / hartree       =       -76.337248187617902
 Total times  cpu:      656.2s     wall:      656.2s
