============================== echo of input deck ==============================
 echo
 start H2O
 title "H2O"

 memory total 24 gb

 geometry units angstrom
 symmetry c1
   zmatrix
     O
     H1 O 0.97551
     H2 O 0.97551 H1 102.60
   end
 end

 basis spherical
   * library cc-pVTZ
 end

 tce
   2eorb
   2emet 13
   ccsd
   maxiter 300
 end

# set tce:print_integrals T
# set tce:qorb 8
# set tce:qela 5
# set tce:qelb 5

 set tce:qducc T
 set tce:nactv 3
 set tce:nonhf T
 set tce:ducc_model 6

 set tce:printtol 0.02

 task tce
================================================================================

 Output coordinates in angstroms (scale by  1.889725989 to convert to a.u.)

  No.       Tag          Charge          X              Y              Z
 ---- ---------------- ---------- -------------- -------------- --------------
    1 O                    8.0000    -0.09520166     0.00000000    -0.07627091
    2 H1                   1.0000    -0.09520166     0.00000000     0.89923909
    3 H2                   1.0000     0.85681490     0.00000000    -0.28907182

         Total SCF energy =    -76.055180593892

 Vector    2  Occ=2.000000D+00  E=-1.337836D+00

 Vector    3  Occ=2.000000D+00  E=-6.963373D-01

 Vector    4  Occ=2.000000D+00  E=-5.780318D-01

 Vector    5  Occ=2.000000D+00  E=-5.036900D-01

 Vector    6  Occ=0.000000D+00  E= 1.399688D-01

 Vector    7  Occ=0.000000D+00  E= 2.026964D-01

 Vector    8  Occ=0.000000D+00  E= 5.334487D-01

 Vector    9  Occ=0.000000D+00  E= 5.981155D-01

 Vector   10  Occ=0.000000D+00  E= 6.704814D-01

 Vector   11  Occ=0.000000D+00  E= 7.866829D-01

 Vector   12  Occ=0.000000D+00  E= 7.881847D-01

 Vector   13  Occ=0.000000D+00  E= 8.062585D-01

 Vector   14  Occ=0.000000D+00  E= 8.613777D-01

 Vector   15  Occ=0.000000D+00  E= 9.454555D-01

       Multipole analysis of the density wrt the origin
       ------------------------------------------------

     L   x y z        total         open         nuclear
     -   - - -        -----         ----         -------
     0   0 0 0      0.000000      0.000000     10.000000

     1   1 0 0      0.635589      0.000000     -0.000000
     1   0 1 0      0.000000      0.000000      0.000000
     1   0 0 1      0.509203      0.000000      0.000000

     2   2 0 0     -3.941642      0.000000      2.912924
     2   1 1 0      0.000000      0.000000      0.000000
     2   1 0 1     -0.653401      0.000000     -0.982761
     2   0 2 0     -5.451942      0.000000      0.000000
     2   0 1 1      0.000000      0.000000      0.000000

 CCSD total energy / hartree       =       -76.337264379556999
 Total times  cpu:      794.6s     wall:      794.6s
