============================== echo of input deck ==============================
 echo
 start H2O
 title "H2O"

 memory total 24 gb

 geometry units angstrom
 symmetry c1
   zmatrix
     O
     H1 O 0.97551
     H2 O 0.97551 H1 102.15
   end
 end

 basis spherical
   * library cc-pVTZ
 end

 tce
   2eorb
   2emet 13
   ccsd
   maxiter 300
 end

# set tce:print_integrals T
# set tce:qorb 8
# set tce:qela 5
# set tce:qelb 5

 set tce:qducc T
 set tce:nactv 3
 set tce:nonhf T
 set tce:ducc_model 6

 set tce:printtol 0.02

 task tce
================================================================================

 Output coordinates in angstroms (scale by  1.889725989 to convert to a.u.)

  No.       Tag          Charge          X              Y              Z
 ---- ---------------- ---------- -------------- -------------- --------------
    1 O                    8.0000    -0.09536585     0.00000000    -0.07701927
    2 H1                   1.0000    -0.09536585     0.00000000     0.89849073
    3 H2                   1.0000     0.85829266     0.00000000    -0.28233658

         Total SCF energy =    -76.055123333674

 Vector    2  Occ=2.000000D+00  E=-1.338173D+00

 Vector    3  Occ=2.000000D+00  E=-6.954849D-01

 Vector    4  Occ=2.000000D+00  E=-5.789239D-01

 Vector    5  Occ=2.000000D+00  E=-5.038424D-01

 Vector    6  Occ=0.000000D+00  E= 1.398817D-01

 Vector    7  Occ=0.000000D+00  E= 2.027820D-01

 Vector    8  Occ=0.000000D+00  E= 5.327219D-01

 Vector    9  Occ=0.000000D+00  E= 5.996597D-01

 Vector   10  Occ=0.000000D+00  E= 6.701979D-01

 Vector   11  Occ=0.000000D+00  E= 7.860954D-01

 Vector   12  Occ=0.000000D+00  E= 7.865833D-01

 Vector   13  Occ=0.000000D+00  E= 8.065310D-01

 Vector   14  Occ=0.000000D+00  E= 8.623542D-01

 Vector   15  Occ=0.000000D+00  E= 9.436057D-01

       Multipole analysis of the density wrt the origin
       ------------------------------------------------

     L   x y z        total         open         nuclear
     -   - - -        -----         ----         -------
     0   0 0 0     -0.000000      0.000000     10.000000

     1   1 0 0      0.635754      0.000000      0.000000
     1   0 1 0     -0.000000      0.000000      0.000000
     1   0 0 1      0.513447      0.000000      0.000000

     2   2 0 0     -3.936582      0.000000      2.922981
     2   1 1 0     -0.000000      0.000000      0.000000
     2   1 0 1     -0.642146      0.000000     -0.961519
     2   0 2 0     -5.451589      0.000000      0.000000
     2   0 1 1      0.000000      0.000000      0.000000

 CCSD total energy / hartree       =       -76.337245588202009
 Total times  cpu:      652.5s     wall:      652.5s
