============================== echo of input deck ==============================
 echo
 start H2O
 title "H2O"

 memory total 24 gb

 geometry units angstrom
 symmetry c1
   zmatrix
     O
     H1 O 0.97551
     H2 O 0.97551 H1 102.70
   end
 end

 basis spherical
   * library cc-pVTZ
 end

 tce
   2eorb
   2emet 13
   ccsd
   maxiter 300
 end

# set tce:print_integrals T
# set tce:qorb 8
# set tce:qela 5
# set tce:qelb 5

 set tce:qducc T
 set tce:nactv 3
 set tce:nonhf T
 set tce:ducc_model 6

 set tce:printtol 0.02

 task tce
================================================================================

 Output coordinates in angstroms (scale by  1.889725989 to convert to a.u.)

  No.       Tag          Charge          X              Y              Z
 ---- ---------------- ---------- -------------- -------------- --------------
    1 O                    8.0000    -0.09516437     0.00000000    -0.07610478
    2 H1                   1.0000    -0.09516437     0.00000000     0.89940522
    3 H2                   1.0000     0.85647933     0.00000000    -0.29056695

         Total SCF energy =    -76.055191817750

 Vector    2  Occ=2.000000D+00  E=-1.337762D+00

 Vector    3  Occ=2.000000D+00  E=-6.965260D-01

 Vector    4  Occ=2.000000D+00  E=-5.778337D-01

 Vector    5  Occ=2.000000D+00  E=-5.036560D-01

 Vector    6  Occ=0.000000D+00  E= 1.399878D-01

 Vector    7  Occ=0.000000D+00  E= 2.026774D-01

 Vector    8  Occ=0.000000D+00  E= 5.336116D-01

 Vector    9  Occ=0.000000D+00  E= 5.977699D-01

 Vector   10  Occ=0.000000D+00  E= 6.705461D-01

 Vector   11  Occ=0.000000D+00  E= 7.867050D-01

 Vector   12  Occ=0.000000D+00  E= 7.886559D-01

 Vector   13  Occ=0.000000D+00  E= 8.061977D-01

 Vector   14  Occ=0.000000D+00  E= 8.611614D-01

 Vector   15  Occ=0.000000D+00  E= 9.458672D-01

       Multipole analysis of the density wrt the origin
       ------------------------------------------------

     L   x y z        total         open         nuclear
     -   - - -        -----         ----         -------
     0   0 0 0     -0.000000      0.000000     10.000000

     1   1 0 0      0.635548      0.000000      0.000000
     1   0 1 0      0.000000      0.000000      0.000000
     1   0 0 1      0.508260      0.000000      0.000000

     2   2 0 0     -3.942790      0.000000      2.910643
     2   1 1 0      0.000000      0.000000      0.000000
     2   1 0 1     -0.655890      0.000000     -0.987457
     2   0 2 0     -5.452021      0.000000      0.000000
     2   0 1 1      0.000000      0.000000      0.000000

 CCSD total energy / hartree       =       -76.337267152426719
 Total times  cpu:      657.5s     wall:      657.5s
