============================== echo of input deck ==============================
 echo
 start H2O
 title "H2O"

 memory total 24 gb

 geometry units angstrom
 symmetry c1
   zmatrix
     O
     H1 O 0.97551
     H2 O 0.97551 H1 102.30
   end
 end

 basis spherical
   * library cc-pVTZ
 end

 tce
   2eorb
   2emet 13
   ccsd
   maxiter 300
 end

# set tce:print_integrals T
# set tce:qorb 8
# set tce:qela 5
# set tce:qelb 5

 set tce:qducc T
 set tce:nactv 3
 set tce:nonhf T
 set tce:ducc_model 6

 set tce:printtol 0.02

 task tce
================================================================================

 Output coordinates in angstroms (scale by  1.889725989 to convert to a.u.)

  No.       Tag          Charge          X              Y              Z
 ---- ---------------- ---------- -------------- -------------- --------------
    1 O                    8.0000    -0.09531177     0.00000000    -0.07676967
    2 H1                   1.0000    -0.09531177     0.00000000     0.89874033
    3 H2                   1.0000     0.85780596     0.00000000    -0.28458294

         Total SCF energy =    -76.055143650554

 Vector    2  Occ=2.000000D+00  E=-1.338061D+00

 Vector    3  Occ=2.000000D+00  E=-6.957697D-01

 Vector    4  Occ=2.000000D+00  E=-5.786264D-01

 Vector    5  Occ=2.000000D+00  E=-5.037917D-01

 Vector    6  Occ=0.000000D+00  E= 1.399110D-01

 Vector    7  Occ=0.000000D+00  E= 2.027535D-01

 Vector    8  Occ=0.000000D+00  E= 5.329631D-01

 Vector    9  Occ=0.000000D+00  E= 5.991471D-01

 Vector   10  Occ=0.000000D+00  E= 6.702910D-01

 Vector   11  Occ=0.000000D+00  E= 7.866165D-01

 Vector   12  Occ=0.000000D+00  E= 7.867862D-01

 Vector   13  Occ=0.000000D+00  E= 8.064403D-01

 Vector   14  Occ=0.000000D+00  E= 8.620282D-01

 Vector   15  Occ=0.000000D+00  E= 9.442218D-01

       Multipole analysis of the density wrt the origin
       ------------------------------------------------

     L   x y z        total         open         nuclear
     -   - - -        -----         ----         -------
     0   0 0 0     -0.000000      0.000000     10.000000

     1   1 0 0      0.635702      0.000000     -0.000000
     1   0 1 0     -0.000000      0.000000      0.000000
     1   0 0 1      0.512032      0.000000     -0.000000

     2   2 0 0     -3.938249      0.000000      2.919667
     2   1 1 0     -0.000000      0.000000      0.000000
     2   1 0 1     -0.645908      0.000000     -0.968619
     2   0 2 0     -5.451706      0.000000      0.000000
     2   0 1 1     -0.000000      0.000000      0.000000

 CCSD total energy / hartree       =       -76.337253002288634
 Total times  cpu:      703.6s     wall:      703.6s
