============================== echo of input deck ==============================
 echo
 start H2O
 title "H2O"

 memory total 24 gb

 geometry units angstrom
 symmetry c1
   zmatrix
     O
     H1 O 0.97551
     H2 O 0.97551 H1 102.00
   end
 end

 basis spherical
   * library cc-pVTZ
 end

 tce
   2eorb
   2emet 13
   ccsd
   maxiter 300
 end

# set tce:print_integrals T
# set tce:qorb 8
# set tce:qela 5
# set tce:qelb 5

 set tce:qducc T
 set tce:nactv 3
 set tce:nonhf T
 set tce:ducc_model 6

 set tce:printtol 0.02

 task tce
================================================================================

 Output coordinates in angstroms (scale by  1.889725989 to convert to a.u.)

  No.       Tag          Charge          X              Y              Z
 ---- ---------------- ---------- -------------- -------------- --------------
    1 O                    8.0000    -0.09541928     0.00000000    -0.07726901
    2 H1                   1.0000    -0.09541928     0.00000000     0.89824099
    3 H2                   1.0000     0.85877349     0.00000000    -0.28008894

         Total SCF energy =    -76.055101783145

 Vector    2  Occ=2.000000D+00  E=-1.338286D+00

 Vector    3  Occ=2.000000D+00  E=-6.951996D-01

 Vector    4  Occ=2.000000D+00  E=-5.792214D-01

 Vector    5  Occ=2.000000D+00  E=-5.038931D-01

 Vector    6  Occ=0.000000D+00  E= 1.398520D-01

 Vector    7  Occ=0.000000D+00  E= 2.028105D-01

 Vector    8  Occ=0.000000D+00  E= 5.324819D-01

 Vector    9  Occ=0.000000D+00  E= 6.001702D-01

 Vector   10  Occ=0.000000D+00  E= 6.701062D-01

 Vector   11  Occ=0.000000D+00  E= 7.854102D-01

 Vector   12  Occ=0.000000D+00  E= 7.865501D-01

 Vector   13  Occ=0.000000D+00  E= 8.066215D-01

 Vector   14  Occ=0.000000D+00  E= 8.626808D-01

 Vector   15  Occ=0.000000D+00  E= 9.429902D-01

       Multipole analysis of the density wrt the origin
       ------------------------------------------------

     L   x y z        total         open         nuclear
     -   - - -        -----         ----         -------
     0   0 0 0     -0.000000      0.000000     10.000000

     1   1 0 0      0.635801      0.000000      0.000000
     1   0 1 0     -0.000000      0.000000      0.000000
     1   0 0 1      0.514862      0.000000      0.000000

     2   2 0 0     -3.934936      0.000000      2.926257
     2   1 1 0      0.000000      0.000000      0.000000
     2   1 0 1     -0.638375      0.000000     -0.954399
     2   0 2 0     -5.451473      0.000000      0.000000
     2   0 1 1     -0.000000      0.000000      0.000000

 CCSD total energy / hartree       =       -76.337237020217572
 Total times  cpu:      661.7s     wall:      661.7s
