============================== echo of input deck ==============================
 echo
 start H2O
 title "H2O"

 memory total 24 gb

 geometry units angstrom
 symmetry c1
   zmatrix
     O
     H1 O 0.97551
     H2 O 0.97551 H1 102.45
   end
 end

 basis spherical
   * library cc-pVTZ
 end

 tce
   2eorb
   2emet 13
   ccsd
   maxiter 300
 end

# set tce:print_integrals T
# set tce:qorb 8
# set tce:qela 5
# set tce:qelb 5

 set tce:qducc T
 set tce:nactv 3
 set tce:nonhf T
 set tce:ducc_model 6

 set tce:printtol 0.02

 task tce
================================================================================

 Output coordinates in angstroms (scale by  1.889725989 to convert to a.u.)

  No.       Tag          Charge          X              Y              Z
 ---- ---------------- ---------- -------------- -------------- --------------
    1 O                    8.0000    -0.09525704     0.00000000    -0.07652022
    2 H1                   1.0000    -0.09525704     0.00000000     0.89898978
    3 H2                   1.0000     0.85731337     0.00000000    -0.28682803

         Total SCF energy =    -76.055162736410

 Vector    2  Occ=2.000000D+00  E=-1.337949D+00

 Vector    3  Occ=2.000000D+00  E=-6.960538D-01

 Vector    4  Occ=2.000000D+00  E=-5.783291D-01

 Vector    5  Occ=2.000000D+00  E=-5.037409D-01

 Vector    6  Occ=0.000000D+00  E= 1.399401D-01

 Vector    7  Occ=0.000000D+00  E= 2.027249D-01

 Vector    8  Occ=0.000000D+00  E= 5.332053D-01

 Vector    9  Occ=0.000000D+00  E= 5.986323D-01

 Vector   10  Occ=0.000000D+00  E= 6.703855D-01

 Vector   11  Occ=0.000000D+00  E= 7.866497D-01

 Vector   12  Occ=0.000000D+00  E= 7.874827D-01

 Vector   13  Occ=0.000000D+00  E= 8.063495D-01

 Vector   14  Occ=0.000000D+00  E= 8.617027D-01

 Vector   15  Occ=0.000000D+00  E= 9.448384D-01

       Multipole analysis of the density wrt the origin
       ------------------------------------------------

     L   x y z        total         open         nuclear
     -   - - -        -----         ----         -------
     0   0 0 0     -0.000000      0.000000     10.000000

     1   1 0 0      0.635648      0.000000      0.000000
     1   0 1 0      0.000000      0.000000      0.000000
     1   0 0 1      0.510617      0.000000      0.000000

     2   2 0 0     -3.939935      0.000000      2.916314
     2   1 1 0      0.000000      0.000000      0.000000
     2   1 0 1     -0.649660      0.000000     -0.975700
     2   0 2 0     -5.451824      0.000000      0.000000
     2   0 1 1     -0.000000      0.000000      0.000000

 CCSD total energy / hartree       =       -76.337259265167233
 Total times  cpu:      630.6s     wall:      630.6s
