============================== echo of input deck ==============================
 echo
 start H2O
 title "H2O"

 memory total 24 gb

 geometry units angstrom
 symmetry c1
   zmatrix
     O
     H1 O 0.97551
     H2 O 0.97551 H1 103.90
   end
 end

 basis spherical
   * library cc-pVTZ
 end

 tce
   2eorb
   2emet 13
   ccsd
   maxiter 300
 end

# set tce:print_integrals T
# set tce:qorb 8
# set tce:qela 5
# set tce:qelb 5

 set tce:qducc T
 set tce:nactv 3
 set tce:nonhf T
 set tce:ducc_model 6

 set tce:printtol 0.02

 task tce
================================================================================

 Output coordinates in angstroms (scale by  1.889725989 to convert to a.u.)

  No.       Tag          Charge          X              Y              Z
 ---- ---------------- ---------- -------------- -------------- --------------
    1 O                    8.0000    -0.09469436     0.00000000    -0.07411651
    2 H1                   1.0000    -0.09469436     0.00000000     0.90139349
    3 H2                   1.0000     0.85224927     0.00000000    -0.30846137

         Total SCF energy =    -76.055284296966

 Vector    2  Occ=2.000000D+00  E=-1.336870D+00

 Vector    3  Occ=2.000000D+00  E=-6.987698D-01

 Vector    4  Occ=2.000000D+00  E=-5.754607D-01

 Vector    5  Occ=2.000000D+00  E=-5.032456D-01

 Vector    6  Occ=0.000000D+00  E= 1.402052D-01

 Vector    7  Occ=0.000000D+00  E= 2.024496D-01

 Vector    8  Occ=0.000000D+00  E= 5.356050D-01

 Vector    9  Occ=0.000000D+00  E= 5.935594D-01

 Vector   10  Occ=0.000000D+00  E= 6.713728D-01

 Vector   11  Occ=0.000000D+00  E= 7.869693D-01

 Vector   12  Occ=0.000000D+00  E= 7.944976D-01

 Vector   13  Occ=0.000000D+00  E= 8.054615D-01

 Vector   14  Occ=0.000000D+00  E= 8.585842D-01

 Vector   15  Occ=0.000000D+00  E= 9.508234D-01

       Multipole analysis of the density wrt the origin
       ------------------------------------------------

     L   x y z        total         open         nuclear
     -   - - -        -----         ----         -------
     0   0 0 0     -0.000000      0.000000     10.000000

     1   1 0 0      0.634925      0.000000     -0.000000
     1   0 1 0     -0.000000      0.000000      0.000000
     1   0 0 1      0.496950      0.000000     -0.000000

     2   2 0 0     -3.957269      0.000000      2.881963
     2   1 1 0     -0.000000      0.000000      0.000000
     2   1 0 1     -0.685385      0.000000     -1.043092
     2   0 2 0     -5.452991      0.000000      0.000000
     2   0 1 1      0.000000      0.000000      0.000000

 CCSD total energy / hartree       =       -76.337260996458113
 Total times  cpu:      644.2s     wall:      644.2s
