============================== echo of input deck ==============================
 echo
 start H2O
 title "H2O"

 memory total 24 gb

 geometry units angstrom
 symmetry c1
   zmatrix
     O
     H1 O 0.97551
     H2 O 0.97551 H1 103.50
   end
 end

 basis spherical
   * library cc-pVTZ
 end

 tce
   2eorb
   2emet 13
   ccsd
   maxiter 300
 end

# set tce:print_integrals T
# set tce:qorb 8
# set tce:qela 5
# set tce:qelb 5

 set tce:qducc T
 set tce:nactv 3
 set tce:nonhf T
 set tce:ducc_model 6

 set tce:printtol 0.02

 task tce
================================================================================

 Output coordinates in angstroms (scale by  1.889725989 to convert to a.u.)

  No.       Tag          Charge          X              Y              Z
 ---- ---------------- ---------- -------------- -------------- --------------
    1 O                    8.0000    -0.09485566     0.00000000    -0.07477817
    2 H1                   1.0000    -0.09485566     0.00000000     0.90073183
    3 H2                   1.0000     0.85370092     0.00000000    -0.30250646

         Total SCF energy =    -76.055262090333

 Vector    2  Occ=2.000000D+00  E=-1.337166D+00

 Vector    3  Occ=2.000000D+00  E=-6.980261D-01

 Vector    4  Occ=2.000000D+00  E=-5.762509D-01

 Vector    5  Occ=2.000000D+00  E=-5.033829D-01

 Vector    6  Occ=0.000000D+00  E= 1.401349D-01

 Vector    7  Occ=0.000000D+00  E= 2.025255D-01

 Vector    8  Occ=0.000000D+00  E= 5.349327D-01

 Vector    9  Occ=0.000000D+00  E= 5.949749D-01

 Vector   10  Occ=0.000000D+00  E= 6.710867D-01

 Vector   11  Occ=0.000000D+00  E= 7.868813D-01

 Vector   12  Occ=0.000000D+00  E= 7.925124D-01

 Vector   13  Occ=0.000000D+00  E= 8.057084D-01

 Vector   14  Occ=0.000000D+00  E= 8.594394D-01

 Vector   15  Occ=0.000000D+00  E= 9.491682D-01

       Multipole analysis of the density wrt the origin
       ------------------------------------------------

     L   x y z        total         open         nuclear
     -   - - -        -----         ----         -------
     0   0 0 0     -0.000000      0.000000     10.000000

     1   1 0 0      0.635159      0.000000      0.000000
     1   0 1 0      0.000000      0.000000      0.000000
     1   0 0 1      0.500719      0.000000      0.000000

     2   2 0 0     -3.952302      0.000000      2.891789
     2   1 1 0      0.000000      0.000000      0.000000
     2   1 0 1     -0.675630      0.000000     -1.024697
     2   0 2 0     -5.452664      0.000000      0.000000
     2   0 1 1     -0.000000      0.000000      0.000000

 CCSD total energy / hartree       =       -76.337271098038528
 Total times  cpu:      661.5s     wall:      661.5s
