============================== echo of input deck ==============================
 echo
 start H2O
 title "H2O"

 memory total 24 gb

 geometry units angstrom
 symmetry c1
   zmatrix
     O
     H1 O 0.97551
     H2 O 0.97551 H1 103.25
   end
 end

 basis spherical
   * library cc-pVTZ
 end

 tce
   2eorb
   2emet 13
   ccsd
   maxiter 300
 end

# set tce:print_integrals T
# set tce:qorb 8
# set tce:qela 5
# set tce:qelb 5

 set tce:qducc T
 set tce:nactv 3
 set tce:nonhf T
 set tce:ducc_model 6

 set tce:printtol 0.02

 task tce
================================================================================

 Output coordinates in angstroms (scale by  1.889725989 to convert to a.u.)

  No.       Tag          Charge          X              Y              Z
 ---- ---------------- ---------- -------------- -------------- --------------
    1 O                    8.0000    -0.09495412     0.00000000    -0.07519227
    2 H1                   1.0000    -0.09495412     0.00000000     0.90031773
    3 H2                   1.0000     0.85458708     0.00000000    -0.29877955

         Total SCF energy =    -76.055243845835

 Vector    2  Occ=2.000000D+00  E=-1.337352D+00

 Vector    3  Occ=2.000000D+00  E=-6.975592D-01

 Vector    4  Occ=2.000000D+00  E=-5.767452D-01

 Vector    5  Occ=2.000000D+00  E=-5.034685D-01

 Vector    6  Occ=0.000000D+00  E= 1.400899D-01

 Vector    7  Occ=0.000000D+00  E= 2.025730D-01

 Vector    8  Occ=0.000000D+00  E= 5.345164D-01

 Vector    9  Occ=0.000000D+00  E= 5.958538D-01

 Vector   10  Occ=0.000000D+00  E= 6.709133D-01

 Vector   11  Occ=0.000000D+00  E= 7.868263D-01

 Vector   12  Occ=0.000000D+00  E= 7.912907D-01

 Vector   13  Occ=0.000000D+00  E= 8.058619D-01

 Vector   14  Occ=0.000000D+00  E= 8.599758D-01

 Vector   15  Occ=0.000000D+00  E= 9.481352D-01

       Multipole analysis of the density wrt the origin
       ------------------------------------------------

     L   x y z        total         open         nuclear
     -   - - -        -----         ----         -------
     0   0 0 0     -0.000000      0.000000     10.000000

     1   1 0 0      0.635292      0.000000      0.000000
     1   0 1 0      0.000000      0.000000      0.000000
     1   0 0 1      0.503075      0.000000     -0.000000

     2   2 0 0     -3.949269      0.000000      2.897796
     2   1 1 0      0.000000      0.000000      0.000000
     2   1 0 1     -0.669494      0.000000     -1.013123
     2   0 2 0     -5.452461      0.000000      0.000000
     2   0 1 1     -0.000000      0.000000      0.000000

 CCSD total energy / hartree       =       -76.337273335887929
 Total times  cpu:      683.4s     wall:      683.4s
