============================== echo of input deck ==============================
 echo
 start H2O
 title "H2O"

 memory total 24 gb

 geometry units angstrom
 symmetry c1
   zmatrix
     O
     H1 O 0.97551
     H2 O 0.97551 H1 103.15
   end
 end

 basis spherical
   * library cc-pVTZ
 end

 tce
   2eorb
   2emet 13
   ccsd
   maxiter 300
 end

# set tce:print_integrals T
# set tce:qorb 8
# set tce:qela 5
# set tce:qelb 5

 set tce:qducc T
 set tce:nactv 3
 set tce:nonhf T
 set tce:ducc_model 6

 set tce:printtol 0.02

 task tce
================================================================================

 Output coordinates in angstroms (scale by  1.889725989 to convert to a.u.)

  No.       Tag          Charge          X              Y              Z
 ---- ---------------- ---------- -------------- -------------- --------------
    1 O                    8.0000    -0.09499300     0.00000000    -0.07535803
    2 H1                   1.0000    -0.09499300     0.00000000     0.90015197
    3 H2                   1.0000     0.85493699     0.00000000    -0.29728770

         Total SCF energy =    -76.055235604300

 Vector    2  Occ=2.000000D+00  E=-1.337426D+00

 Vector    3  Occ=2.000000D+00  E=-6.973719D-01

 Vector    4  Occ=2.000000D+00  E=-5.769430D-01

 Vector    5  Occ=2.000000D+00  E=-5.035027D-01

 Vector    6  Occ=0.000000D+00  E= 1.400716D-01

 Vector    7  Occ=0.000000D+00  E= 2.025919D-01

 Vector    8  Occ=0.000000D+00  E= 5.343508D-01

 Vector    9  Occ=0.000000D+00  E= 5.962040D-01

 Vector   10  Occ=0.000000D+00  E= 6.708451D-01

 Vector   11  Occ=0.000000D+00  E= 7.868043D-01

 Vector   12  Occ=0.000000D+00  E= 7.908062D-01

 Vector   13  Occ=0.000000D+00  E= 8.059232D-01

 Vector   14  Occ=0.000000D+00  E= 8.601908D-01

 Vector   15  Occ=0.000000D+00  E= 9.477224D-01

       Multipole analysis of the density wrt the origin
       ------------------------------------------------

     L   x y z        total         open         nuclear
     -   - - -        -----         ----         -------
     0   0 0 0     -0.000000      0.000000     10.000000

     1   1 0 0      0.635342      0.000000      0.000000
     1   0 1 0      0.000000      0.000000      0.000000
     1   0 0 1      0.504017      0.000000      0.000000

     2   2 0 0     -3.948071      0.000000      2.900169
     2   1 1 0      0.000000      0.000000      0.000000
     2   1 0 1     -0.667031      0.000000     -1.008478
     2   0 2 0     -5.452380      0.000000      0.000000
     2   0 1 1      0.000000      0.000000      0.000000

 CCSD total energy / hartree       =       -76.337273349648285
 Total times  cpu:      647.0s     wall:      647.0s
