============================== echo of input deck ==============================
 echo
 start H2O
 title "H2O"

 memory total 24 gb

 geometry units angstrom
 symmetry c1
   zmatrix
     O
     H1 O 0.97551
     H2 O 0.97551 H1 103.80
   end
 end

 basis spherical
   * library cc-pVTZ
 end

 tce
   2eorb
   2emet 13
   ccsd
   maxiter 300
 end

# set tce:print_integrals T
# set tce:qorb 8
# set tce:qela 5
# set tce:qelb 5

 set tce:qducc T
 set tce:nactv 3
 set tce:nonhf T
 set tce:ducc_model 6

 set tce:printtol 0.02

 task tce
================================================================================

 Output coordinates in angstroms (scale by  1.889725989 to convert to a.u.)

  No.       Tag          Charge          X              Y              Z
 ---- ---------------- ---------- -------------- -------------- --------------
    1 O                    8.0000    -0.09473512     0.00000000    -0.07428182
    2 H1                   1.0000    -0.09473512     0.00000000     0.90122818
    3 H2                   1.0000     0.85261608     0.00000000    -0.30697360

         Total SCF energy =    -76.055279548995

 Vector    2  Occ=2.000000D+00  E=-1.336944D+00

 Vector    3  Occ=2.000000D+00  E=-6.985843D-01

 Vector    4  Occ=2.000000D+00  E=-5.756582D-01

 Vector    5  Occ=2.000000D+00  E=-5.032800D-01

 Vector    6  Occ=0.000000D+00  E= 1.401878D-01

 Vector    7  Occ=0.000000D+00  E= 2.024686D-01

 Vector    8  Occ=0.000000D+00  E= 5.354362D-01

 Vector    9  Occ=0.000000D+00  E= 5.939143D-01

 Vector   10  Occ=0.000000D+00  E= 6.713002D-01

 Vector   11  Occ=0.000000D+00  E= 7.869473D-01

 Vector   12  Occ=0.000000D+00  E= 7.939978D-01

 Vector   13  Occ=0.000000D+00  E= 8.055234D-01

 Vector   14  Occ=0.000000D+00  E= 8.587976D-01

 Vector   15  Occ=0.000000D+00  E= 9.504093D-01

       Multipole analysis of the density wrt the origin
       ------------------------------------------------

     L   x y z        total         open         nuclear
     -   - - -        -----         ----         -------
     0   0 0 0     -0.000000      0.000000     10.000000

     1   1 0 0      0.634986      0.000000      0.000000
     1   0 1 0      0.000000      0.000000      0.000000
     1   0 0 1      0.497892      0.000000      0.000000

     2   2 0 0     -3.956014      0.000000      2.884445
     2   1 1 0     -0.000000      0.000000      0.000000
     2   1 0 1     -0.682954      0.000000     -1.038508
     2   0 2 0     -5.452909      0.000000      0.000000
     2   0 1 1      0.000000      0.000000      0.000000

 CCSD total energy / hartree       =       -76.337264272028278
 Total times  cpu:      656.8s     wall:      656.8s
