============================== echo of input deck ==============================
 echo
 start H2O
 title "H2O"

 memory total 24 gb

 geometry units angstrom
 symmetry c1
   zmatrix
     O
     H1 O 0.97551
     H2 O 0.97551 H1 104.45
   end
 end

 basis spherical
   * library cc-pVTZ
 end

 tce
   2eorb
   2emet 13
   ccsd
   maxiter 300
 end

# set tce:print_integrals T
# set tce:qorb 8
# set tce:qela 5
# set tce:qelb 5

 set tce:qducc T
 set tce:nactv 3
 set tce:nonhf T
 set tce:ducc_model 6

 set tce:printtol 0.02

 task tce
================================================================================

 Output coordinates in angstroms (scale by  1.889725989 to convert to a.u.)

  No.       Tag          Charge          X              Y              Z
 ---- ---------------- ---------- -------------- -------------- --------------
    1 O                    8.0000    -0.09446505     0.00000000    -0.07320861
    2 H1                   1.0000    -0.09446505     0.00000000     0.90230139
    3 H2                   1.0000     0.85018544     0.00000000    -0.31663253

         Total SCF energy =    -76.055300878855

 Vector    2  Occ=2.000000D+00  E=-1.336464D+00

 Vector    3  Occ=2.000000D+00  E=-6.997854D-01

 Vector    4  Occ=2.000000D+00  E=-5.743756D-01

 Vector    5  Occ=2.000000D+00  E=-5.030558D-01

 Vector    6  Occ=0.000000D+00  E= 1.402983D-01

 Vector    7  Occ=0.000000D+00  E= 2.023453D-01

 Vector    8  Occ=0.000000D+00  E= 5.365422D-01

 Vector    9  Occ=0.000000D+00  E= 5.915960D-01

 Vector   10  Occ=0.000000D+00  E= 6.717839D-01

 Vector   11  Occ=0.000000D+00  E= 7.870899D-01

 Vector   12  Occ=0.000000D+00  E= 7.972871D-01

 Vector   13  Occ=0.000000D+00  E= 8.051192D-01

 Vector   14  Occ=0.000000D+00  E= 8.574146D-01

 Vector   15  Occ=0.000000D+00  E= 9.531040D-01

       Multipole analysis of the density wrt the origin
       ------------------------------------------------

     L   x y z        total         open         nuclear
     -   - - -        -----         ----         -------
     0   0 0 0     -0.000000      0.000000     10.000000

     1   1 0 0      0.634559      0.000000      0.000000
     1   0 1 0     -0.000000      0.000000      0.000000
     1   0 0 1      0.491771      0.000000      0.000000

     2   2 0 0     -3.964328      0.000000      2.868022
     2   1 1 0      0.000000      0.000000      0.000000
     2   1 0 1     -0.698668      0.000000     -1.068131
     2   0 2 0     -5.453448      0.000000      0.000000
     2   0 1 1      0.000000      0.000000      0.000000

 CCSD total energy / hartree       =       -76.337234086967328
 Total times  cpu:      642.5s     wall:      642.5s
