============================== echo of input deck ==============================
 echo
 start H2O
 title "H2O"

 memory total 24 gb

 geometry units angstrom
 symmetry c1
   zmatrix
     O
     H1 O 0.97551
     H2 O 0.97551 H1 104.80
   end
 end

 basis spherical
   * library cc-pVTZ
 end

 tce
   2eorb
   2emet 13
   ccsd
   maxiter 300
 end

# set tce:print_integrals T
# set tce:qorb 8
# set tce:qela 5
# set tce:qelb 5

 set tce:qducc T
 set tce:nactv 3
 set tce:nonhf T
 set tce:ducc_model 6

 set tce:printtol 0.02

 task tce
================================================================================

 Output coordinates in angstroms (scale by  1.889725989 to convert to a.u.)

  No.       Tag          Charge          X              Y              Z
 ---- ---------------- ---------- -------------- -------------- --------------
    1 O                    8.0000    -0.09431459     0.00000000    -0.07263201
    2 H1                   1.0000    -0.09431459     0.00000000     0.90287799
    3 H2                   1.0000     0.84883130     0.00000000    -0.32182190

         Total SCF energy =    -76.055303075239

 Vector    2  Occ=2.000000D+00  E=-1.336206D+00

 Vector    3  Occ=2.000000D+00  E=-7.004274D-01

 Vector    4  Occ=2.000000D+00  E=-5.736859D-01

 Vector    5  Occ=2.000000D+00  E=-5.029345D-01

 Vector    6  Occ=0.000000D+00  E= 1.403554D-01

 Vector    7  Occ=0.000000D+00  E= 2.022790D-01

 Vector    8  Occ=0.000000D+00  E= 5.371462D-01

 Vector    9  Occ=0.000000D+00  E= 5.903372D-01

 Vector   10  Occ=0.000000D+00  E= 6.720565D-01

 Vector   11  Occ=0.000000D+00  E= 7.871666D-01

 Vector   12  Occ=0.000000D+00  E= 7.990977D-01

 Vector   13  Occ=0.000000D+00  E= 8.048995D-01

 Vector   14  Occ=0.000000D+00  E= 8.566742D-01

 Vector   15  Occ=0.000000D+00  E= 9.545578D-01

       Multipole analysis of the density wrt the origin
       ------------------------------------------------

     L   x y z        total         open         nuclear
     -   - - -        -----         ----         -------
     0   0 0 0     -0.000000      0.000000     10.000000

     1   1 0 0      0.634300      0.000000      0.000000
     1   0 1 0     -0.000000      0.000000      0.000000
     1   0 0 1      0.488476      0.000000      0.000000

     2   2 0 0     -3.968957      0.000000      2.858893
     2   1 1 0      0.000000      0.000000      0.000000
     2   1 0 1     -0.707041      0.000000     -1.083907
     2   0 2 0     -5.453743      0.000000      0.000000
     2   0 1 1      0.000000      0.000000      0.000000

 CCSD total energy / hartree       =       -76.337209169519937
 Total times  cpu:      641.2s     wall:      641.2s
