============================== echo of input deck ==============================
 echo
 start H2O
 title "H2O"

 memory total 24 gb

 geometry units angstrom
 symmetry c1
   zmatrix
     O
     H1 O 0.97551
     H2 O 0.97551 H1 104.60
   end
 end

 basis spherical
   * library cc-pVTZ
 end

 tce
   2eorb
   2emet 13
   ccsd
   maxiter 300
 end

# set tce:print_integrals T
# set tce:qorb 8
# set tce:qela 5
# set tce:qelb 5

 set tce:qducc T
 set tce:nactv 3
 set tce:nonhf T
 set tce:ducc_model 6

 set tce:printtol 0.02

 task tce
================================================================================

 Output coordinates in angstroms (scale by  1.889725989 to convert to a.u.)

  No.       Tag          Charge          X              Y              Z
 ---- ---------------- ---------- -------------- -------------- --------------
    1 O                    8.0000    -0.09440100     0.00000000    -0.07296138
    2 H1                   1.0000    -0.09440100     0.00000000     0.90254862
    3 H2                   1.0000     0.84960898     0.00000000    -0.31885756

         Total SCF energy =    -76.055302613055

 Vector    2  Occ=2.000000D+00  E=-1.336353D+00

 Vector    3  Occ=2.000000D+00  E=-7.000610D-01

 Vector    4  Occ=2.000000D+00  E=-5.740799D-01

 Vector    5  Occ=2.000000D+00  E=-5.030039D-01

 Vector    6  Occ=0.000000D+00  E= 1.403230D-01

 Vector    7  Occ=0.000000D+00  E= 2.023169D-01

 Vector    8  Occ=0.000000D+00  E= 5.368003D-01

 Vector    9  Occ=0.000000D+00  E= 5.910573D-01

 Vector   10  Occ=0.000000D+00  E= 6.718996D-01

 Vector   11  Occ=0.000000D+00  E= 7.871228D-01

 Vector   12  Occ=0.000000D+00  E= 7.980598D-01

 Vector   13  Occ=0.000000D+00  E= 8.050252D-01

 Vector   14  Occ=0.000000D+00  E= 8.570969D-01

 Vector   15  Occ=0.000000D+00  E= 9.537268D-01

       Multipole analysis of the density wrt the origin
       ------------------------------------------------

     L   x y z        total         open         nuclear
     -   - - -        -----         ----         -------
     0   0 0 0     -0.000000      0.000000     10.000000

     1   1 0 0      0.634450      0.000000      0.000000
     1   0 1 0     -0.000000      0.000000      0.000000
     1   0 0 1      0.490359      0.000000      0.000000

     2   2 0 0     -3.966299      0.000000      2.864134
     2   1 1 0      0.000000      0.000000      0.000000
     2   1 0 1     -0.702264      0.000000     -1.074907
     2   0 2 0     -5.453574      0.000000      0.000000
     2   0 1 1      0.000000      0.000000      0.000000

 CCSD total energy / hartree       =       -76.337224147369099
 Total times  cpu:      638.2s     wall:      638.2s
