============================== echo of input deck ==============================
 echo
 start H2O
 title "H2O"

 memory total 24 gb

 geometry units angstrom
 symmetry c1
   zmatrix
     O
     H1 O 0.97551
     H2 O 0.97551 H1 105.70
   end
 end

 basis spherical
   * library cc-pVTZ
 end

 tce
   2eorb
   2emet 13
   ccsd
   maxiter 300
 end

# set tce:print_integrals T
# set tce:qorb 8
# set tce:qela 5
# set tce:qelb 5

 set tce:qducc T
 set tce:nactv 3
 set tce:nonhf T
 set tce:ducc_model 6

 set tce:printtol 0.02

 task tce
================================================================================

 Output coordinates in angstroms (scale by  1.889725989 to convert to a.u.)

  No.       Tag          Charge          X              Y              Z
 ---- ---------------- ---------- -------------- -------------- --------------
    1 O                    8.0000    -0.09391154     0.00000000    -0.07115366
    2 H1                   1.0000    -0.09391154     0.00000000     0.90435634
    3 H2                   1.0000     0.84520388     0.00000000    -0.33512710

         Total SCF energy =    -76.055279160257

 Vector    2  Occ=2.000000D+00  E=-1.335548D+00

 Vector    3  Occ=2.000000D+00  E=-7.020632D-01

 Vector    4  Occ=2.000000D+00  E=-5.719154D-01

 Vector    5  Occ=2.000000D+00  E=-5.026206D-01

 Vector    6  Occ=0.000000D+00  E= 1.404948D-01

 Vector    7  Occ=0.000000D+00  E= 2.021087D-01

 Vector    8  Occ=0.000000D+00  E= 5.387263D-01

 Vector    9  Occ=0.000000D+00  E= 5.870717D-01

 Vector   10  Occ=0.000000D+00  E= 6.727979D-01

 Vector   11  Occ=0.000000D+00  E= 7.873634D-01

 Vector   12  Occ=0.000000D+00  E= 8.038752D-01

 Vector   13  Occ=0.000000D+00  E= 8.043273D-01

 Vector   14  Occ=0.000000D+00  E= 8.547839D-01

 Vector   15  Occ=0.000000D+00  E= 9.583041D-01

       Multipole analysis of the density wrt the origin
       ------------------------------------------------

     L   x y z        total         open         nuclear
     -   - - -        -----         ----         -------
     0   0 0 0     -0.000000      0.000000     10.000000

     1   1 0 0      0.633537      0.000000      0.000000
     1   0 1 0      0.000000      0.000000      0.000000
     1   0 0 1      0.480010      0.000000      0.000000

     2   2 0 0     -3.981344      0.000000      2.834511
     2   1 1 0      0.000000      0.000000      0.000000
     2   1 0 1     -0.728273      0.000000     -1.123896
     2   0 2 0     -5.454515      0.000000      0.000000
     2   0 1 1     -0.000000      0.000000      0.000000

 CCSD total energy / hartree       =       -76.337117542802034
 Total times  cpu:      694.4s     wall:      694.4s
