============================== echo of input deck ==============================
 echo
 start H2O
 title "H2O"

 memory total 24 gb

 geometry units angstrom
 symmetry c1
   zmatrix
     O
     H1 O 0.97551
     H2 O 0.97551 H1 105.25
   end
 end

 basis spherical
   * library cc-pVTZ
 end

 tce
   2eorb
   2emet 13
   ccsd
   maxiter 300
 end

# set tce:print_integrals T
# set tce:qorb 8
# set tce:qela 5
# set tce:qelb 5

 set tce:qducc T
 set tce:nactv 3
 set tce:nonhf T
 set tce:ducc_model 6

 set tce:printtol 0.02

 task tce
================================================================================

 Output coordinates in angstroms (scale by  1.889725989 to convert to a.u.)

  No.       Tag          Charge          X              Y              Z
 ---- ---------------- ---------- -------------- -------------- --------------
    1 O                    8.0000    -0.09411597     0.00000000    -0.07189204
    2 H1                   1.0000    -0.09411597     0.00000000     0.90361796
    3 H2                   1.0000     0.84704371     0.00000000    -0.32848162

         Total SCF energy =    -76.055296416423

 Vector    2  Occ=2.000000D+00  E=-1.335876D+00

 Vector    3  Occ=2.000000D+00  E=-7.012481D-01

 Vector    4  Occ=2.000000D+00  E=-5.728001D-01

 Vector    5  Occ=2.000000D+00  E=-5.027779D-01

 Vector    6  Occ=0.000000D+00  E= 1.404265D-01

 Vector    7  Occ=0.000000D+00  E= 2.021938D-01

 Vector    8  Occ=0.000000D+00  E= 5.379314D-01

 Vector    9  Occ=0.000000D+00  E= 5.887092D-01

 Vector   10  Occ=0.000000D+00  E= 6.724198D-01

 Vector   11  Occ=0.000000D+00  E= 7.872650D-01

 Vector   12  Occ=0.000000D+00  E= 8.014648D-01

 Vector   13  Occ=0.000000D+00  E= 8.046147D-01

 Vector   14  Occ=0.000000D+00  E= 8.557266D-01

 Vector   15  Occ=0.000000D+00  E= 9.564296D-01

       Multipole analysis of the density wrt the origin
       ------------------------------------------------

     L   x y z        total         open         nuclear
     -   - - -        -----         ----         -------
     0   0 0 0     -0.000000      0.000000     10.000000

     1   1 0 0      0.633936      0.000000      0.000000
     1   0 1 0      0.000000      0.000000      0.000000
     1   0 0 1      0.484242      0.000000      0.000000

     2   2 0 0     -3.975064      0.000000      2.846865
     2   1 1 0     -0.000000      0.000000      0.000000
     2   1 0 1     -0.717711      0.000000     -1.104008
     2   0 2 0     -5.454127      0.000000      0.000000
     2   0 1 1     -0.000000      0.000000      0.000000

 CCSD total energy / hartree       =       -76.337168293128215
 Total times  cpu:      661.9s     wall:      661.9s
