============================== echo of input deck ==============================
 echo
 start H2O
 title "H2O"

 memory total 24 gb

 geometry units angstrom
 symmetry c1
   zmatrix
     O
     H1 O 0.97551
     H2 O 0.97551 H1 105.65
   end
 end

 basis spherical
   * library cc-pVTZ
 end

 tce
   2eorb
   2emet 13
   ccsd
   maxiter 300
 end

# set tce:print_integrals T
# set tce:qorb 8
# set tce:qela 5
# set tce:qelb 5

 set tce:qducc T
 set tce:nactv 3
 set tce:nonhf T
 set tce:ducc_model 6

 set tce:printtol 0.02

 task tce
================================================================================

 Output coordinates in angstroms (scale by  1.889725989 to convert to a.u.)

  No.       Tag          Charge          X              Y              Z
 ---- ---------------- ---------- -------------- -------------- --------------
    1 O                    8.0000    -0.09393454     0.00000000    -0.07123562
    2 H1                   1.0000    -0.09393454     0.00000000     0.90427438
    3 H2                   1.0000     0.84541089     0.00000000    -0.33438943

         Total SCF energy =    -76.055281598514

 Vector    2  Occ=2.000000D+00  E=-1.335584D+00

 Vector    3  Occ=2.000000D+00  E=-7.019729D-01

 Vector    4  Occ=2.000000D+00  E=-5.720137D-01

 Vector    5  Occ=2.000000D+00  E=-5.026381D-01

 Vector    6  Occ=0.000000D+00  E= 1.404874D-01

 Vector    7  Occ=0.000000D+00  E= 2.021182D-01

 Vector    8  Occ=0.000000D+00  E= 5.386375D-01

 Vector    9  Occ=0.000000D+00  E= 5.872541D-01

 Vector   10  Occ=0.000000D+00  E= 6.727552D-01

 Vector   11  Occ=0.000000D+00  E= 7.873525D-01

 Vector   12  Occ=0.000000D+00  E= 8.036053D-01

 Vector   13  Occ=0.000000D+00  E= 8.043594D-01

 Vector   14  Occ=0.000000D+00  E= 8.548884D-01

 Vector   15  Occ=0.000000D+00  E= 9.580957D-01

       Multipole analysis of the density wrt the origin
       ------------------------------------------------

     L   x y z        total         open         nuclear
     -   - - -        -----         ----         -------
     0   0 0 0     -0.000000      0.000000     10.000000

     1   1 0 0      0.633583      0.000000      0.000000
     1   0 1 0      0.000000      0.000000      0.000000
     1   0 0 1      0.480480      0.000000     -0.000000

     2   2 0 0     -3.980638      0.000000      2.835899
     2   1 1 0     -0.000000      0.000000      0.000000
     2   1 0 1     -0.727105      0.000000     -1.121697
     2   0 2 0     -5.454472      0.000000      0.000000
     2   0 1 1     -0.000000      0.000000      0.000000

 CCSD total energy / hartree       =       -76.337123666913129
 Total times  cpu:      644.7s     wall:      644.7s
