============================== echo of input deck ==============================
 echo
 start H2O
 title "H2O"

 memory total 24 gb

 geometry units angstrom
 symmetry c1
   zmatrix
     O
     H1 O 0.97551
     H2 O 0.97551 H1 105.20
   end
 end

 basis spherical
   * library cc-pVTZ
 end

 tce
   2eorb
   2emet 13
   ccsd
   maxiter 300
 end

# set tce:print_integrals T
# set tce:qorb 8
# set tce:qela 5
# set tce:qelb 5

 set tce:qducc T
 set tce:nactv 3
 set tce:nonhf T
 set tce:ducc_model 6

 set tce:printtol 0.02

 task tce
================================================================================

 Output coordinates in angstroms (scale by  1.889725989 to convert to a.u.)

  No.       Tag          Charge          X              Y              Z
 ---- ---------------- ---------- -------------- -------------- --------------
    1 O                    8.0000    -0.09413832     0.00000000    -0.07197418
    2 H1                   1.0000    -0.09413832     0.00000000     0.90353582
    3 H2                   1.0000     0.84724492     0.00000000    -0.32774235

         Total SCF energy =    -76.055297681007

 Vector    2  Occ=2.000000D+00  E=-1.335913D+00

 Vector    3  Occ=2.000000D+00  E=-7.011572D-01

 Vector    4  Occ=2.000000D+00  E=-5.728985D-01

 Vector    5  Occ=2.000000D+00  E=-5.027953D-01

 Vector    6  Occ=0.000000D+00  E= 1.404187D-01

 Vector    7  Occ=0.000000D+00  E= 2.022033D-01

 Vector    8  Occ=0.000000D+00  E= 5.378437D-01

 Vector    9  Occ=0.000000D+00  E= 5.888906D-01

 Vector   10  Occ=0.000000D+00  E= 6.723787D-01

 Vector   11  Occ=0.000000D+00  E= 7.872541D-01

 Vector   12  Occ=0.000000D+00  E= 8.011996D-01

 Vector   13  Occ=0.000000D+00  E= 8.046465D-01

 Vector   14  Occ=0.000000D+00  E= 8.558316D-01

 Vector   15  Occ=0.000000D+00  E= 9.562215D-01

       Multipole analysis of the density wrt the origin
       ------------------------------------------------

     L   x y z        total         open         nuclear
     -   - - -        -----         ----         -------
     0   0 0 0     -0.000000      0.000000     10.000000

     1   1 0 0      0.633978      0.000000      0.000000
     1   0 1 0     -0.000000      0.000000      0.000000
     1   0 0 1      0.484713      0.000000     -0.000000

     2   2 0 0     -3.974377      0.000000      2.848217
     2   1 1 0      0.000000      0.000000      0.000000
     2   1 0 1     -0.716531      0.000000     -1.101785
     2   0 2 0     -5.454084      0.000000      0.000000
     2   0 1 1      0.000000      0.000000      0.000000

 CCSD total energy / hartree       =       -76.337173323937023
 Total times  cpu:      659.3s     wall:      659.3s
