============================== echo of input deck ==============================
 echo
 start H2O
 title "H2O"

 memory total 24 gb

 geometry units angstrom
 symmetry c1
   zmatrix
     O
     H1 O 0.97551
     H2 O 0.97551 H1 105.95
   end
 end

 basis spherical
   * library cc-pVTZ
 end

 tce
   2eorb
   2emet 13
   ccsd
   maxiter 300
 end

# set tce:print_integrals T
# set tce:qorb 8
# set tce:qela 5
# set tce:qelb 5

 set tce:qducc T
 set tce:nactv 3
 set tce:nonhf T
 set tce:ducc_model 6

 set tce:printtol 0.02

 task tce
================================================================================

 Output coordinates in angstroms (scale by  1.889725989 to convert to a.u.)

  No.       Tag          Charge          X              Y              Z
 ---- ---------------- ---------- -------------- -------------- --------------
    1 O                    8.0000    -0.09379547     0.00000000    -0.07074414
    2 H1                   1.0000    -0.09379547     0.00000000     0.90476586
    3 H2                   1.0000     0.84415922     0.00000000    -0.33881272

         Total SCF energy =    -76.055265022653

 Vector    2  Occ=2.000000D+00  E=-1.335366D+00

 Vector    3  Occ=2.000000D+00  E=-7.025137D-01

 Vector    4  Occ=2.000000D+00  E=-5.714244D-01

 Vector    5  Occ=2.000000D+00  E=-5.025329D-01

 Vector    6  Occ=0.000000D+00  E= 1.405316D-01

 Vector    7  Occ=0.000000D+00  E= 2.020615D-01

 Vector    8  Occ=0.000000D+00  E= 5.391721D-01

 Vector    9  Occ=0.000000D+00  E= 5.861583D-01

 Vector   10  Occ=0.000000D+00  E= 6.730145D-01

 Vector   11  Occ=0.000000D+00  E= 7.874180D-01

 Vector   12  Occ=0.000000D+00  E= 8.041663D-01

 Vector   13  Occ=0.000000D+00  E= 8.052326D-01

 Vector   14  Occ=0.000000D+00  E= 8.542624D-01

 Vector   15  Occ=0.000000D+00  E= 9.593466D-01

       Multipole analysis of the density wrt the origin
       ------------------------------------------------

     L   x y z        total         open         nuclear
     -   - - -        -----         ----         -------
     0   0 0 0     -0.000000      0.000000     10.000000

     1   1 0 0      0.633301      0.000000      0.000000
     1   0 1 0      0.000000      0.000000      0.000000
     1   0 0 1      0.477660      0.000000      0.000000

     2   2 0 0     -3.984908      0.000000      2.827508
     2   1 1 0     -0.000000      0.000000      0.000000
     2   1 0 1     -0.734093      0.000000     -1.134852
     2   0 2 0     -5.454734      0.000000      0.000000
     2   0 1 1     -0.000000      0.000000      0.000000

 CCSD total energy / hartree       =       -76.337085109823661
 Total times  cpu:      649.3s     wall:      649.3s
