============================== echo of input deck ==============================
 echo
 start H2O
 title "H2O"

 memory total 24 gb

 geometry units angstrom
 symmetry c1
   zmatrix
     O
     H1 O 0.97551
     H2 O 0.97551 H1 105.40
   end
 end

 basis spherical
   * library cc-pVTZ
 end

 tce
   2eorb
   2emet 13
   ccsd
   maxiter 300
 end

# set tce:print_integrals T
# set tce:qorb 8
# set tce:qela 5
# set tce:qelb 5

 set tce:qducc T
 set tce:nactv 3
 set tce:nonhf T
 set tce:ducc_model 6

 set tce:printtol 0.02

 task tce
================================================================================

 Output coordinates in angstroms (scale by  1.889725989 to convert to a.u.)

  No.       Tag          Charge          X              Y              Z
 ---- ---------------- ---------- -------------- -------------- --------------
    1 O                    8.0000    -0.09404847     0.00000000    -0.07164574
    2 H1                   1.0000    -0.09404847     0.00000000     0.90386426
    3 H2                   1.0000     0.84643624     0.00000000    -0.33069838

         Total SCF energy =    -76.055291838100

 Vector    2  Occ=2.000000D+00  E=-1.335767D+00

 Vector    3  Occ=2.000000D+00  E=-7.015204D-01

 Vector    4  Occ=2.000000D+00  E=-5.725051D-01

 Vector    5  Occ=2.000000D+00  E=-5.027255D-01

 Vector    6  Occ=0.000000D+00  E= 1.404496D-01

 Vector    7  Occ=0.000000D+00  E= 2.021655D-01

 Vector    8  Occ=0.000000D+00  E= 5.381953D-01

 Vector    9  Occ=0.000000D+00  E= 5.881644D-01

 Vector   10  Occ=0.000000D+00  E= 6.725442D-01

 Vector   11  Occ=0.000000D+00  E= 7.872978D-01

 Vector   12  Occ=0.000000D+00  E= 8.022635D-01

 Vector   13  Occ=0.000000D+00  E= 8.045192D-01

 Vector   14  Occ=0.000000D+00  E= 8.554118D-01

 Vector   15  Occ=0.000000D+00  E= 9.570542D-01

       Multipole analysis of the density wrt the origin
       ------------------------------------------------

     L   x y z        total         open         nuclear
     -   - - -        -----         ----         -------
     0   0 0 0     -0.000000      0.000000     10.000000

     1   1 0 0      0.633807      0.000000      0.000000
     1   0 1 0     -0.000000      0.000000      0.000000
     1   0 0 1      0.482831      0.000000     -0.000000

     2   2 0 0     -3.977138      0.000000      2.842783
     2   1 1 0      0.000000      0.000000      0.000000
     2   1 0 1     -0.721244      0.000000     -1.110661
     2   0 2 0     -5.454256      0.000000      0.000000
     2   0 1 1      0.000000      0.000000      0.000000

 CCSD total energy / hartree       =       -76.337152469713217
 Total times  cpu:      642.2s     wall:      642.2s
