============================== echo of input deck ==============================
 echo
 start H2O
 title "H2O"

 memory total 24 gb

 geometry units angstrom
 symmetry c1
   zmatrix
     O
     H1 O 0.97551
     H2 O 0.97551 H1 105.55
   end
 end

 basis spherical
   * library cc-pVTZ
 end

 tce
   2eorb
   2emet 13
   ccsd
   maxiter 300
 end

# set tce:print_integrals T
# set tce:qorb 8
# set tce:qela 5
# set tce:qelb 5

 set tce:qducc T
 set tce:nactv 3
 set tce:nonhf T
 set tce:ducc_model 6

 set tce:printtol 0.02

 task tce
================================================================================

 Output coordinates in angstroms (scale by  1.889725989 to convert to a.u.)

  No.       Tag          Charge          X              Y              Z
 ---- ---------------- ---------- -------------- -------------- --------------
    1 O                    8.0000    -0.09398033     0.00000000    -0.07139961
    2 H1                   1.0000    -0.09398033     0.00000000     0.90411039
    3 H2                   1.0000     0.84582296     0.00000000    -0.33291355

         Total SCF energy =    -76.055286084561

 Vector    2  Occ=2.000000D+00  E=-1.335657D+00

 Vector    3  Occ=2.000000D+00  E=-7.017921D-01

 Vector    4  Occ=2.000000D+00  E=-5.722102D-01

 Vector    5  Occ=2.000000D+00  E=-5.026731D-01

 Vector    6  Occ=0.000000D+00  E= 1.404723D-01

 Vector    7  Occ=0.000000D+00  E= 2.021371D-01

 Vector    8  Occ=0.000000D+00  E= 5.384603D-01

 Vector    9  Occ=0.000000D+00  E= 5.876185D-01

 Vector   10  Occ=0.000000D+00  E= 6.726702D-01

 Vector   11  Occ=0.000000D+00  E= 7.873306D-01

 Vector   12  Occ=0.000000D+00  E= 8.030670D-01

 Vector   13  Occ=0.000000D+00  E= 8.044234D-01

 Vector   14  Occ=0.000000D+00  E= 8.550976D-01

 Vector   15  Occ=0.000000D+00  E= 9.576790D-01

       Multipole analysis of the density wrt the origin
       ------------------------------------------------

     L   x y z        total         open         nuclear
     -   - - -        -----         ----         -------
     0   0 0 0     -0.000000      0.000000     10.000000

     1   1 0 0      0.633674      0.000000      0.000000
     1   0 1 0     -0.000000      0.000000      0.000000
     1   0 0 1      0.481421      0.000000     -0.000000

     2   2 0 0     -3.979232      0.000000      2.838665
     2   1 1 0      0.000000      0.000000      0.000000
     2   1 0 1     -0.724765      0.000000     -1.117290
     2   0 2 0     -5.454385      0.000000      0.000000
     2   0 1 1      0.000000      0.000000      0.000000

 CCSD total energy / hartree       =       -76.337135551459113
 Total times  cpu:      651.6s     wall:      651.6s
