============================== echo of input deck ==============================
 echo
 start H2O
 title "H2O"

 memory total 24 gb

 geometry units angstrom
 symmetry c1
   zmatrix
     O
     H1 O 0.97551
     H2 O 0.97551 H1 105.10
   end
 end

 basis spherical
   * library cc-pVTZ
 end

 tce
   2eorb
   2emet 13
   ccsd
   maxiter 300
 end

# set tce:print_integrals T
# set tce:qorb 8
# set tce:qela 5
# set tce:qelb 5

 set tce:qducc T
 set tce:nactv 3
 set tce:nonhf T
 set tce:ducc_model 6

 set tce:printtol 0.02

 task tce
================================================================================

 Output coordinates in angstroms (scale by  1.889725989 to convert to a.u.)

  No.       Tag          Charge          X              Y              Z
 ---- ---------------- ---------- -------------- -------------- --------------
    1 O                    8.0000    -0.09418282     0.00000000    -0.07213852
    2 H1                   1.0000    -0.09418282     0.00000000     0.90337148
    3 H2                   1.0000     0.84764539     0.00000000    -0.32626328

         Total SCF energy =    -76.055299817276

 Vector    2  Occ=2.000000D+00  E=-1.335986D+00

 Vector    3  Occ=2.000000D+00  E=-7.009751D-01

 Vector    4  Occ=2.000000D+00  E=-5.730953D-01

 Vector    5  Occ=2.000000D+00  E=-5.028302D-01

 Vector    6  Occ=0.000000D+00  E= 1.404031D-01

 Vector    7  Occ=0.000000D+00  E= 2.022222D-01

 Vector    8  Occ=0.000000D+00  E= 5.376686D-01

 Vector    9  Occ=0.000000D+00  E= 5.892530D-01

 Vector   10  Occ=0.000000D+00  E= 6.722971D-01

 Vector   11  Occ=0.000000D+00  E= 7.872322D-01

 Vector   12  Occ=0.000000D+00  E= 8.006709D-01

 Vector   13  Occ=0.000000D+00  E= 8.047099D-01

 Vector   14  Occ=0.000000D+00  E= 8.560419D-01

 Vector   15  Occ=0.000000D+00  E= 9.558054D-01

       Multipole analysis of the density wrt the origin
       ------------------------------------------------

     L   x y z        total         open         nuclear
     -   - - -        -----         ----         -------
     0   0 0 0     -0.000000      0.000000     10.000000

     1   1 0 0      0.634061      0.000000      0.000000
     1   0 1 0      0.000000      0.000000      0.000000
     1   0 0 1      0.485654      0.000000     -0.000000

     2   2 0 0     -3.973009      0.000000      2.850910
     2   1 1 0     -0.000000      0.000000      0.000000
     2   1 0 1     -0.714166      0.000000     -1.097331
     2   0 2 0     -5.453998      0.000000      0.000000
     2   0 1 1     -0.000000      0.000000      0.000000

 CCSD total energy / hartree       =       -76.337183019451786
 Total times  cpu:      709.2s     wall:      709.2s
