============================== echo of input deck ==============================
 echo
 start H2O
 title "H2O"

 memory total 24 gb

 geometry units angstrom
 symmetry c1
   zmatrix
     O
     H1 O 0.97551
     H2 O 0.97551 H1 106.15
   end
 end

 basis spherical
   * library cc-pVTZ
 end

 tce
   2eorb
   2emet 13
   ccsd
   maxiter 300
 end

# set tce:print_integrals T
# set tce:qorb 8
# set tce:qela 5
# set tce:qelb 5

 set tce:qducc T
 set tce:nactv 3
 set tce:nonhf T
 set tce:ducc_model 6

 set tce:printtol 0.02

 task tce
================================================================================

 Output coordinates in angstroms (scale by  1.889725989 to convert to a.u.)

  No.       Tag          Charge          X              Y              Z
 ---- ---------------- ---------- -------------- -------------- --------------
    1 O                    8.0000    -0.09370132     0.00000000    -0.07041690
    2 H1                   1.0000    -0.09370132     0.00000000     0.90509310
    3 H2                   1.0000     0.84331192     0.00000000    -0.34175792

         Total SCF energy =    -76.055251383605

 Vector    2  Occ=2.000000D+00  E=-1.335220D+00

 Vector    3  Occ=2.000000D+00  E=-7.028728D-01

 Vector    4  Occ=2.000000D+00  E=-5.710318D-01

 Vector    5  Occ=2.000000D+00  E=-5.024626D-01

 Vector    6  Occ=0.000000D+00  E= 1.405605D-01

 Vector    7  Occ=0.000000D+00  E= 2.020237D-01

 Vector    8  Occ=0.000000D+00  E= 5.395308D-01

 Vector    9  Occ=0.000000D+00  E= 5.854258D-01

 Vector   10  Occ=0.000000D+00  E= 6.731912D-01

 Vector   11  Occ=0.000000D+00  E= 7.874617D-01

 Vector   12  Occ=0.000000D+00  E= 8.040369D-01

 Vector   13  Occ=0.000000D+00  E= 8.063278D-01

 Vector   14  Occ=0.000000D+00  E= 8.538462D-01

 Vector   15  Occ=0.000000D+00  E= 9.601810D-01

       Multipole analysis of the density wrt the origin
       ------------------------------------------------

     L   x y z        total         open         nuclear
     -   - - -        -----         ----         -------
     0   0 0 0     -0.000000      0.000000     10.000000

     1   1 0 0      0.633105      0.000000      0.000000
     1   0 1 0     -0.000000      0.000000      0.000000
     1   0 0 1      0.475780      0.000000     -0.000000

     2   2 0 0     -3.987797      0.000000      2.821835
     2   1 1 0     -0.000000      0.000000      0.000000
     2   1 0 1     -0.738724      0.000000     -1.143568
     2   0 2 0     -5.454909      0.000000      0.000000
     2   0 1 1     -0.000000      0.000000      0.000000

 CCSD total energy / hartree       =       -76.337056995121344
 Total times  cpu:      649.2s     wall:      649.2s
