============================== echo of input deck ==============================
 echo
 start H2O
 title "H2O"

 memory total 24 gb

 geometry units angstrom
 symmetry c1
   zmatrix
     O
     H1 O 0.97551
     H2 O 0.97551 H1 106.10
   end
 end

 basis spherical
   * library cc-pVTZ
 end

 tce
   2eorb
   2emet 13
   ccsd
   maxiter 300
 end

# set tce:print_integrals T
# set tce:qorb 8
# set tce:qela 5
# set tce:qelb 5

 set tce:qducc T
 set tce:nactv 3
 set tce:nonhf T
 set tce:ducc_model 6

 set tce:printtol 0.02

 task tce
================================================================================

 Output coordinates in angstroms (scale by  1.889725989 to convert to a.u.)

  No.       Tag          Charge          X              Y              Z
 ---- ---------------- ---------- -------------- -------------- --------------
    1 O                    8.0000    -0.09372497     0.00000000    -0.07049868
    2 H1                   1.0000    -0.09372497     0.00000000     0.90501132
    3 H2                   1.0000     0.84352471     0.00000000    -0.34102190

         Total SCF energy =    -76.055254987011

 Vector    2  Occ=2.000000D+00  E=-1.335256D+00

 Vector    3  Occ=2.000000D+00  E=-7.027832D-01

 Vector    4  Occ=2.000000D+00  E=-5.711299D-01

 Vector    5  Occ=2.000000D+00  E=-5.024801D-01

 Vector    6  Occ=0.000000D+00  E= 1.405533D-01

 Vector    7  Occ=0.000000D+00  E= 2.020331D-01

 Vector    8  Occ=0.000000D+00  E= 5.394409D-01

 Vector    9  Occ=0.000000D+00  E= 5.856091D-01

 Vector   10  Occ=0.000000D+00  E= 6.731467D-01

 Vector   11  Occ=0.000000D+00  E= 7.874508D-01

 Vector   12  Occ=0.000000D+00  E= 8.040693D-01

 Vector   13  Occ=0.000000D+00  E= 8.060532D-01

 Vector   14  Occ=0.000000D+00  E= 8.539502D-01

 Vector   15  Occ=0.000000D+00  E= 9.599724D-01

       Multipole analysis of the density wrt the origin
       ------------------------------------------------

     L   x y z        total         open         nuclear
     -   - - -        -----         ----         -------
     0   0 0 0     -0.000000      0.000000     10.000000

     1   1 0 0      0.633154      0.000000     -0.000000
     1   0 1 0     -0.000000      0.000000      0.000000
     1   0 0 1      0.476250      0.000000     -0.000000

     2   2 0 0     -3.987071      0.000000      2.823259
     2   1 1 0      0.000000      0.000000      0.000000
     2   1 0 1     -0.737569      0.000000     -1.141393
     2   0 2 0     -5.454865      0.000000      0.000000
     2   0 1 1     -0.000000      0.000000      0.000000

 CCSD total energy / hartree       =       -76.337064204056247
 Total times  cpu:      644.5s     wall:      644.5s
