============================== echo of input deck ==============================
 echo
 start H2O
 title "H2O"

 memory total 24 gb

 geometry units angstrom
 symmetry c1
   zmatrix
     O
     H1 O 0.97551
     H2 O 0.97551 H1 106.20
   end
 end

 basis spherical
   * library cc-pVTZ
 end

 tce
   2eorb
   2emet 13
   ccsd
   maxiter 300
 end

# set tce:print_integrals T
# set tce:qorb 8
# set tce:qela 5
# set tce:qelb 5

 set tce:qducc T
 set tce:nactv 3
 set tce:nonhf T
 set tce:ducc_model 6

 set tce:printtol 0.02

 task tce
================================================================================

 Output coordinates in angstroms (scale by  1.889725989 to convert to a.u.)

  No.       Tag          Charge          X              Y              Z
 ---- ---------------- ---------- -------------- -------------- --------------
    1 O                    8.0000    -0.09367761     0.00000000    -0.07033514
    2 H1                   1.0000    -0.09367761     0.00000000     0.90517486
    3 H2                   1.0000     0.84309848     0.00000000    -0.34249375

         Total SCF energy =    -76.055247651282

 Vector    2  Occ=2.000000D+00  E=-1.335184D+00

 Vector    3  Occ=2.000000D+00  E=-7.029625D-01

 Vector    4  Occ=2.000000D+00  E=-5.709337D-01

 Vector    5  Occ=2.000000D+00  E=-5.024449D-01

 Vector    6  Occ=0.000000D+00  E= 1.405676D-01

 Vector    7  Occ=0.000000D+00  E= 2.020142D-01

 Vector    8  Occ=0.000000D+00  E= 5.396208D-01

 Vector    9  Occ=0.000000D+00  E= 5.852425D-01

 Vector   10  Occ=0.000000D+00  E= 6.732358D-01

 Vector   11  Occ=0.000000D+00  E= 7.874726D-01

 Vector   12  Occ=0.000000D+00  E= 8.040045D-01

 Vector   13  Occ=0.000000D+00  E= 8.066028D-01

 Vector   14  Occ=0.000000D+00  E= 8.537423D-01

 Vector   15  Occ=0.000000D+00  E= 9.603897D-01

       Multipole analysis of the density wrt the origin
       ------------------------------------------------

     L   x y z        total         open         nuclear
     -   - - -        -----         ----         -------
     0   0 0 0     -0.000000      0.000000     10.000000

     1   1 0 0      0.633054      0.000000      0.000000
     1   0 1 0      0.000000      0.000000      0.000000
     1   0 0 1      0.475311      0.000000     -0.000000

     2   2 0 0     -3.988524      0.000000      2.820407
     2   1 1 0     -0.000000      0.000000      0.000000
     2   1 0 1     -0.739879      0.000000     -1.145740
     2   0 2 0     -5.454953      0.000000      0.000000
     2   0 1 1     -0.000000      0.000000      0.000000

 CCSD total energy / hartree       =       -76.337049666189060
 Total times  cpu:      648.5s     wall:      648.5s
