============================== echo of input deck ==============================
 echo
 start H2O
 title "H2O"

 memory total 24 gb

 geometry units angstrom
 symmetry c1
   zmatrix
     O
     H1 O 0.97551
     H2 O 0.97551 H1 106.05
   end
 end

 basis spherical
   * library cc-pVTZ
 end

 tce
   2eorb
   2emet 13
   ccsd
   maxiter 300
 end

# set tce:print_integrals T
# set tce:qorb 8
# set tce:qela 5
# set tce:qelb 5

 set tce:qducc T
 set tce:nactv 3
 set tce:nonhf T
 set tce:ducc_model 6

 set tce:printtol 0.02

 task tce
================================================================================

 Output coordinates in angstroms (scale by  1.889725989 to convert to a.u.)

  No.       Tag          Charge          X              Y              Z
 ---- ---------------- ---------- -------------- -------------- --------------
    1 O                    8.0000    -0.09374854     0.00000000    -0.07058048
    2 H1                   1.0000    -0.09374854     0.00000000     0.90492952
    3 H2                   1.0000     0.84373685     0.00000000    -0.34028569

         Total SCF energy =    -76.055258461404

 Vector    2  Occ=2.000000D+00  E=-1.335293D+00

 Vector    3  Occ=2.000000D+00  E=-7.026934D-01

 Vector    4  Occ=2.000000D+00  E=-5.712281D-01

 Vector    5  Occ=2.000000D+00  E=-5.024977D-01

 Vector    6  Occ=0.000000D+00  E= 1.405461D-01

 Vector    7  Occ=0.000000D+00  E= 2.020426D-01

 Vector    8  Occ=0.000000D+00  E= 5.393512D-01

 Vector    9  Occ=0.000000D+00  E= 5.857923D-01

 Vector   10  Occ=0.000000D+00  E= 6.731025D-01

 Vector   11  Occ=0.000000D+00  E= 7.874398D-01

 Vector   12  Occ=0.000000D+00  E= 8.041017D-01

 Vector   13  Occ=0.000000D+00  E= 8.057792D-01

 Vector   14  Occ=0.000000D+00  E= 8.540542D-01

 Vector   15  Occ=0.000000D+00  E= 9.597637D-01

       Multipole analysis of the density wrt the origin
       ------------------------------------------------

     L   x y z        total         open         nuclear
     -   - - -        -----         ----         -------
     0   0 0 0     -0.000000      0.000000     10.000000

     1   1 0 0      0.633204      0.000000     -0.000000
     1   0 1 0     -0.000000      0.000000      0.000000
     1   0 0 1      0.476720      0.000000      0.000000

     2   2 0 0     -3.986348      0.000000      2.824680
     2   1 1 0     -0.000000      0.000000      0.000000
     2   1 0 1     -0.736412      0.000000     -1.139215
     2   0 2 0     -5.454821      0.000000      0.000000
     2   0 1 1     -0.000000      0.000000      0.000000

 CCSD total energy / hartree       =       -76.337071292902550
 Total times  cpu:      634.2s     wall:      634.2s
