============================== echo of input deck ==============================
 echo
 start H2O
 title "H2O"

 memory total 24 gb

 geometry units angstrom
 symmetry c1
   zmatrix
     O
     H1 O 0.97551
     H2 O 0.97551 H1 106.55
   end
 end

 basis spherical
   * library cc-pVTZ
 end

 tce
   2eorb
   2emet 13
   ccsd
   maxiter 300
 end

# set tce:print_integrals T
# set tce:qorb 8
# set tce:qela 5
# set tce:qelb 5

 set tce:qducc T
 set tce:nactv 3
 set tce:nonhf T
 set tce:ducc_model 6

 set tce:printtol 0.02

 task tce
================================================================================

 Output coordinates in angstroms (scale by  1.889725989 to convert to a.u.)

  No.       Tag          Charge          X              Y              Z
 ---- ---------------- ---------- -------------- -------------- --------------
    1 O                    8.0000    -0.09350961     0.00000000    -0.06976341
    2 H1                   1.0000    -0.09350961     0.00000000     0.90574659
    3 H2                   1.0000     0.84158649     0.00000000    -0.34763935

         Total SCF energy =    -76.055217924298

 Vector    2  Occ=2.000000D+00  E=-1.334930D+00

 Vector    3  Occ=2.000000D+00  E=-7.035879D-01

 Vector    4  Occ=2.000000D+00  E=-5.702473D-01

 Vector    5  Occ=2.000000D+00  E=-5.023215D-01

 Vector    6  Occ=0.000000D+00  E= 1.406166D-01

 Vector    7  Occ=0.000000D+00  E= 2.019481D-01

 Vector    8  Occ=0.000000D+00  E= 5.402539D-01

 Vector    9  Occ=0.000000D+00  E= 5.839567D-01

 Vector   10  Occ=0.000000D+00  E= 6.735536D-01

 Vector   11  Occ=0.000000D+00  E= 7.875490D-01

 Vector   12  Occ=0.000000D+00  E= 8.037762D-01

 Vector   13  Occ=0.000000D+00  E= 8.085423D-01

 Vector   14  Occ=0.000000D+00  E= 8.530169D-01

 Vector   15  Occ=0.000000D+00  E= 9.618511D-01

       Multipole analysis of the density wrt the origin
       ------------------------------------------------

     L   x y z        total         open         nuclear
     -   - - -        -----         ----         -------
     0   0 0 0     -0.000000      0.000000     10.000000

     1   1 0 0      0.632690      0.000000      0.000000
     1   0 1 0      0.000000      0.000000      0.000000
     1   0 0 1      0.472022      0.000000      0.000000

     2   2 0 0     -3.993675      0.000000      2.810300
     2   1 1 0     -0.000000      0.000000      0.000000
     2   1 0 1     -0.747919      0.000000     -1.160868
     2   0 2 0     -5.455264      0.000000      0.000000
     2   0 1 1     -0.000000      0.000000      0.000000

 CCSD total energy / hartree       =       -76.336995012655564
 Total times  cpu:      640.6s     wall:      640.6s
