============================== echo of input deck ==============================
 echo
 start H2O
 title "H2O"

 memory total 24 gb

 geometry units angstrom
 symmetry c1
   zmatrix
     O
     H1 O 0.97551
     H2 O 0.97551 H1 106.90
   end
 end

 basis spherical
   * library cc-pVTZ
 end

 tce
   2eorb
   2emet 13
   ccsd
   maxiter 300
 end

# set tce:print_integrals T
# set tce:qorb 8
# set tce:qela 5
# set tce:qelb 5

 set tce:qducc T
 set tce:nactv 3
 set tce:nonhf T
 set tce:ducc_model 6

 set tce:printtol 0.02

 task tce
================================================================================

 Output coordinates in angstroms (scale by  1.889725989 to convert to a.u.)

  No.       Tag          Charge          X              Y              Z
 ---- ---------------- ---------- -------------- -------------- --------------
    1 O                    8.0000    -0.09333812     0.00000000    -0.06919271
    2 H1                   1.0000    -0.09333812     0.00000000     0.90631729
    3 H2                   1.0000     0.84004310     0.00000000    -0.35277561

         Total SCF energy =    -76.055181922765

 Vector    2  Occ=2.000000D+00  E=-1.334676D+00

 Vector    3  Occ=2.000000D+00  E=-7.042099D-01

 Vector    4  Occ=2.000000D+00  E=-5.695617D-01

 Vector    5  Occ=2.000000D+00  E=-5.021976D-01

 Vector    6  Occ=0.000000D+00  E= 1.406639D-01

 Vector    7  Occ=0.000000D+00  E= 2.018820D-01

 Vector    8  Occ=0.000000D+00  E= 5.408927D-01

 Vector    9  Occ=0.000000D+00  E= 5.826670D-01

 Vector   10  Occ=0.000000D+00  E= 6.738809D-01

 Vector   11  Occ=0.000000D+00  E= 7.876253D-01

 Vector   12  Occ=0.000000D+00  E= 8.035460D-01

 Vector   13  Occ=0.000000D+00  E= 8.105059D-01

 Vector   14  Occ=0.000000D+00  E= 8.522944D-01

 Vector   15  Occ=0.000000D+00  E= 9.633136D-01

       Multipole analysis of the density wrt the origin
       ------------------------------------------------

     L   x y z        total         open         nuclear
     -   - - -        -----         ----         -------
     0   0 0 0     -0.000000      0.000000     10.000000

     1   1 0 0      0.632305      0.000000      0.000000
     1   0 1 0     -0.000000      0.000000      0.000000
     1   0 0 1      0.468736      0.000000     -0.000000

     2   2 0 0     -3.998929      0.000000      2.800002
     2   1 1 0      0.000000      0.000000      0.000000
     2   1 0 1     -0.755890      0.000000     -1.175859
     2   0 2 0     -5.455577      0.000000      0.000000
     2   0 1 1      0.000000      0.000000      0.000000

 CCSD total energy / hartree       =       -76.336934521294310
 Total times  cpu:      654.4s     wall:      654.4s
