============================== echo of input deck ==============================
 echo
 start H2O
 title "H2O"

 memory total 24 gb

 geometry units angstrom
 symmetry c1
   zmatrix
     O
     H1 O 0.97551
     H2 O 0.97551 H1 106.85
   end
 end

 basis spherical
   * library cc-pVTZ
 end

 tce
   2eorb
   2emet 13
   ccsd
   maxiter 300
 end

# set tce:print_integrals T
# set tce:qorb 8
# set tce:qela 5
# set tce:qelb 5

 set tce:qducc T
 set tce:nactv 3
 set tce:nonhf T
 set tce:ducc_model 6

 set tce:printtol 0.02

 task tce
================================================================================

 Output coordinates in angstroms (scale by  1.889725989 to convert to a.u.)

  No.       Tag          Charge          X              Y              Z
 ---- ---------------- ---------- -------------- -------------- --------------
    1 O                    8.0000    -0.09336283     0.00000000    -0.06927417
    2 H1                   1.0000    -0.09336283     0.00000000     0.90623583
    3 H2                   1.0000     0.84026550     0.00000000    -0.35204243

         Total SCF energy =    -76.055187448491

 Vector    2  Occ=2.000000D+00  E=-1.334712D+00

 Vector    3  Occ=2.000000D+00  E=-7.041212D-01

 Vector    4  Occ=2.000000D+00  E=-5.696596D-01

 Vector    5  Occ=2.000000D+00  E=-5.022153D-01

 Vector    6  Occ=0.000000D+00  E= 1.406573D-01

 Vector    7  Occ=0.000000D+00  E= 2.018915D-01

 Vector    8  Occ=0.000000D+00  E= 5.408011D-01

 Vector    9  Occ=0.000000D+00  E= 5.828515D-01

 Vector   10  Occ=0.000000D+00  E= 6.738336D-01

 Vector   11  Occ=0.000000D+00  E= 7.876144D-01

 Vector   12  Occ=0.000000D+00  E= 8.035790D-01

 Vector   13  Occ=0.000000D+00  E= 8.102239D-01

 Vector   14  Occ=0.000000D+00  E= 8.523974D-01

 Vector   15  Occ=0.000000D+00  E= 9.631046D-01

       Multipole analysis of the density wrt the origin
       ------------------------------------------------

     L   x y z        total         open         nuclear
     -   - - -        -----         ----         -------
     0   0 0 0     -0.000000      0.000000     10.000000

     1   1 0 0      0.632362      0.000000     -0.000000
     1   0 1 0      0.000000      0.000000      0.000000
     1   0 0 1      0.469205      0.000000      0.000000

     2   2 0 0     -3.998172      0.000000      2.801485
     2   1 1 0      0.000000      0.000000      0.000000
     2   1 0 1     -0.754756      0.000000     -1.173726
     2   0 2 0     -5.455532      0.000000      0.000000
     2   0 1 1     -0.000000      0.000000      0.000000

 CCSD total energy / hartree       =       -76.336943518846638
 Total times  cpu:      651.6s     wall:      651.6s
