============================== echo of input deck ==============================
 echo
 start H2O
 title "H2O"

 memory total 24 gb

 geometry units angstrom
 symmetry c1
   zmatrix
     O
     H1 O 0.97551
     H2 O 0.97551 H1 106.35
   end
 end

 basis spherical
   * library cc-pVTZ
 end

 tce
   2eorb
   2emet 13
   ccsd
   maxiter 300
 end

# set tce:print_integrals T
# set tce:qorb 8
# set tce:qela 5
# set tce:qelb 5

 set tce:qducc T
 set tce:nactv 3
 set tce:nonhf T
 set tce:ducc_model 6

 set tce:printtol 0.02

 task tce
================================================================================

 Output coordinates in angstroms (scale by  1.889725989 to convert to a.u.)

  No.       Tag          Charge          X              Y              Z
 ---- ---------------- ---------- -------------- -------------- --------------
    1 O                    8.0000    -0.09360604     0.00000000    -0.07008998
    2 H1                   1.0000    -0.09360604     0.00000000     0.90542002
    3 H2                   1.0000     0.84245434     0.00000000    -0.34470014

         Total SCF energy =    -76.055235681830

 Vector    2  Occ=2.000000D+00  E=-1.335075D+00

 Vector    3  Occ=2.000000D+00  E=-7.032309D-01

 Vector    4  Occ=2.000000D+00  E=-5.706395D-01

 Vector    5  Occ=2.000000D+00  E=-5.023921D-01

 Vector    6  Occ=0.000000D+00  E= 1.405888D-01

 Vector    7  Occ=0.000000D+00  E= 2.019859D-01

 Vector    8  Occ=0.000000D+00  E= 5.398914D-01

 Vector    9  Occ=0.000000D+00  E= 5.846919D-01

 Vector   10  Occ=0.000000D+00  E= 6.733708D-01

 Vector   11  Occ=0.000000D+00  E= 7.875053D-01

 Vector   12  Occ=0.000000D+00  E= 8.039069D-01

 Vector   13  Occ=0.000000D+00  E= 8.074310D-01

 Vector   14  Occ=0.000000D+00  E= 8.534310D-01

 Vector   15  Occ=0.000000D+00  E= 9.610159D-01

       Multipole analysis of the density wrt the origin
       ------------------------------------------------

     L   x y z        total         open         nuclear
     -   - - -        -----         ----         -------
     0   0 0 0     -0.000000      0.000000     10.000000

     1   1 0 0      0.632901      0.000000      0.000000
     1   0 1 0      0.000000      0.000000      0.000000
     1   0 0 1      0.473901      0.000000      0.000000

     2   2 0 0     -3.990719      0.000000      2.816099
     2   1 1 0     -0.000000      0.000000      0.000000
     2   1 0 1     -0.743333      0.000000     -1.152240
     2   0 2 0     -5.455086      0.000000      0.000000
     2   0 1 1     -0.000000      0.000000      0.000000

 CCSD total energy / hartree       =       -76.337026960427480
 Total times  cpu:      655.6s     wall:      655.6s
