============================== echo of input deck ==============================
 echo
 start H2O
 title "H2O"

 memory total 24 gb

 geometry units angstrom
 symmetry c1
   zmatrix
     O
     H1 O 0.97551
     H2 O 0.97551 H1 107.35
   end
 end

 basis spherical
   * library cc-pVTZ
 end

 tce
   2eorb
   2emet 13
   ccsd
   maxiter 300
 end

# set tce:print_integrals T
# set tce:qorb 8
# set tce:qela 5
# set tce:qelb 5

 set tce:qducc T
 set tce:nactv 3
 set tce:nonhf T
 set tce:ducc_model 6

 set tce:printtol 0.02

 task tce
================================================================================

 Output coordinates in angstroms (scale by  1.889725989 to convert to a.u.)

  No.       Tag          Charge          X              Y              Z
 ---- ---------------- ---------- -------------- -------------- --------------
    1 O                    8.0000    -0.09311252     0.00000000    -0.06846052
    2 H1                   1.0000    -0.09311252     0.00000000     0.90704948
    3 H2                   1.0000     0.83801268     0.00000000    -0.35936535

         Total SCF energy =    -76.055126475211

 Vector    2  Occ=2.000000D+00  E=-1.334351D+00

 Vector    3  Occ=2.000000D+00  E=-7.050047D-01

 Vector    4  Occ=2.000000D+00  E=-5.686811D-01

 Vector    5  Occ=2.000000D+00  E=-5.020376D-01

 Vector    6  Occ=0.000000D+00  E= 1.407225D-01

 Vector    7  Occ=0.000000D+00  E= 2.017972D-01

 Vector    8  Occ=0.000000D+00  E= 5.417225D-01

 Vector    9  Occ=0.000000D+00  E= 5.810040D-01

 Vector   10  Occ=0.000000D+00  E= 6.743158D-01

 Vector   11  Occ=0.000000D+00  E= 7.877235D-01

 Vector   12  Occ=0.000000D+00  E= 8.032469D-01

 Vector   13  Occ=0.000000D+00  E= 8.130652D-01

 Vector   14  Occ=0.000000D+00  E= 8.513699D-01

 Vector   15  Occ=0.000000D+00  E= 9.651953D-01

       Multipole analysis of the density wrt the origin
       ------------------------------------------------

     L   x y z        total         open         nuclear
     -   - - -        -----         ----         -------
     0   0 0 0     -0.000000      0.000000     10.000000

     1   1 0 0      0.631779      0.000000     -0.000000
     1   0 1 0     -0.000000      0.000000      0.000000
     1   0 0 1      0.464512      0.000000      0.000000

     2   2 0 0     -4.005832      0.000000      2.786483
     2   1 1 0     -0.000000      0.000000      0.000000
     2   1 0 1     -0.766033      0.000000     -1.194929
     2   0 2 0     -5.455985      0.000000      0.000000
     2   0 1 1     -0.000000      0.000000      0.000000

 CCSD total energy / hartree       =       -76.336848227799052
 Total times  cpu:      635.6s     wall:      635.6s
