============================== echo of input deck ==============================
 echo
 start H2O
 title "H2O"

 memory total 24 gb

 geometry units angstrom
 symmetry c1
   zmatrix
     O
     H1 O 0.97551
     H2 O 0.97551 H1 107.70
   end
 end

 basis spherical
   * library cc-pVTZ
 end

 tce
   2eorb
   2emet 13
   ccsd
   maxiter 300
 end

# set tce:print_integrals T
# set tce:qorb 8
# set tce:qela 5
# set tce:qelb 5

 set tce:qducc T
 set tce:nactv 3
 set tce:nonhf T
 set tce:ducc_model 6

 set tce:printtol 0.02

 task tce
================================================================================

 Output coordinates in angstroms (scale by  1.889725989 to convert to a.u.)

  No.       Tag          Charge          X              Y              Z
 ---- ---------------- ---------- -------------- -------------- --------------
    1 O                    8.0000    -0.09293308     0.00000000    -0.06789227
    2 H1                   1.0000    -0.09293308     0.00000000     0.90761773
    3 H2                   1.0000     0.83639772     0.00000000    -0.36447956

         Total SCF energy =    -76.055076272797

 Vector    2  Occ=2.000000D+00  E=-1.334099D+00

 Vector    3  Occ=2.000000D+00  E=-7.056190D-01

 Vector    4  Occ=2.000000D+00  E=-5.679970D-01

 Vector    5  Occ=2.000000D+00  E=-5.019126D-01

 Vector    6  Occ=0.000000D+00  E= 1.407662D-01

 Vector    7  Occ=0.000000D+00  E= 2.017312D-01

 Vector    8  Occ=0.000000D+00  E= 5.423743D-01

 Vector    9  Occ=0.000000D+00  E= 5.797072D-01

 Vector   10  Occ=0.000000D+00  E= 6.746653D-01

 Vector   11  Occ=0.000000D+00  E= 7.877998D-01

 Vector   12  Occ=0.000000D+00  E= 8.030118D-01

 Vector   13  Occ=0.000000D+00  E= 8.150820D-01

 Vector   14  Occ=0.000000D+00  E= 8.506544D-01

 Vector   15  Occ=0.000000D+00  E= 9.666598D-01

       Multipole analysis of the density wrt the origin
       ------------------------------------------------

     L   x y z        total         open         nuclear
     -   - - -        -----         ----         -------
     0   0 0 0     -0.000000      0.000000     10.000000

     1   1 0 0      0.631345      0.000000     -0.000000
     1   0 1 0     -0.000000      0.000000      0.000000
     1   0 0 1      0.461229      0.000000      0.000000

     2   2 0 0     -4.011317      0.000000      2.775753
     2   1 1 0     -0.000000      0.000000      0.000000
     2   1 0 1     -0.773839      0.000000     -1.209598
     2   0 2 0     -5.456305      0.000000      0.000000
     2   0 1 1      0.000000      0.000000      0.000000

 CCSD total energy / hartree       =       -76.336774531952869
 Total times  cpu:      656.5s     wall:      656.5s
