============================== echo of input deck ==============================
 echo
 start H2O
 title "H2O"

 memory total 24 gb

 geometry units angstrom
 symmetry c1
   zmatrix
     O
     H1 O 0.97551
     H2 O 0.97551 H1 107.65
   end
 end

 basis spherical
   * library cc-pVTZ
 end

 tce
   2eorb
   2emet 13
   ccsd
   maxiter 300
 end

# set tce:print_integrals T
# set tce:qorb 8
# set tce:qela 5
# set tce:qelb 5

 set tce:qducc T
 set tce:nactv 3
 set tce:nonhf T
 set tce:ducc_model 6

 set tce:printtol 0.02

 task tce
================================================================================

 Output coordinates in angstroms (scale by  1.889725989 to convert to a.u.)

  No.       Tag          Charge          X              Y              Z
 ---- ---------------- ---------- -------------- -------------- --------------
    1 O                    8.0000    -0.09295893     0.00000000    -0.06797338
    2 H1                   1.0000    -0.09295893     0.00000000     0.90753662
    3 H2                   1.0000     0.83663034     0.00000000    -0.36374957

         Total SCF energy =    -76.055083822028

 Vector    2  Occ=2.000000D+00  E=-1.334135D+00

 Vector    3  Occ=2.000000D+00  E=-7.055314D-01

 Vector    4  Occ=2.000000D+00  E=-5.680947D-01

 Vector    5  Occ=2.000000D+00  E=-5.019305D-01

 Vector    6  Occ=0.000000D+00  E= 1.407600D-01

 Vector    7  Occ=0.000000D+00  E= 2.017406D-01

 Vector    8  Occ=0.000000D+00  E= 5.422808D-01

 Vector    9  Occ=0.000000D+00  E= 5.798926D-01

 Vector   10  Occ=0.000000D+00  E= 6.746148D-01

 Vector   11  Occ=0.000000D+00  E= 7.877889D-01

 Vector   12  Occ=0.000000D+00  E= 8.030455D-01

 Vector   13  Occ=0.000000D+00  E= 8.147925D-01

 Vector   14  Occ=0.000000D+00  E= 8.507564D-01

 Vector   15  Occ=0.000000D+00  E= 9.664506D-01

       Multipole analysis of the density wrt the origin
       ------------------------------------------------

     L   x y z        total         open         nuclear
     -   - - -        -----         ----         -------
     0   0 0 0     -0.000000      0.000000     10.000000

     1   1 0 0      0.631408      0.000000      0.000000
     1   0 1 0      0.000000      0.000000      0.000000
     1   0 0 1      0.461698      0.000000      0.000000

     2   2 0 0     -4.010527      0.000000      2.777297
     2   1 1 0      0.000000      0.000000      0.000000
     2   1 0 1     -0.772728      0.000000     -1.207511
     2   0 2 0     -5.456259      0.000000      0.000000
     2   0 1 1      0.000000      0.000000      0.000000

 CCSD total energy / hartree       =       -76.336785410745946
 Total times  cpu:      666.7s     wall:      666.7s
