============================== echo of input deck ==============================
 echo
 start H2O
 title "H2O"

 memory total 24 gb

 geometry units angstrom
 symmetry c1
   zmatrix
     O
     H1 O 0.97551
     H2 O 0.97551 H1 108.10
   end
 end

 basis spherical
   * library cc-pVTZ
 end

 tce
   2eorb
   2emet 13
   ccsd
   maxiter 300
 end

# set tce:print_integrals T
# set tce:qorb 8
# set tce:qela 5
# set tce:qelb 5

 set tce:qducc T
 set tce:nactv 3
 set tce:nonhf T
 set tce:ducc_model 6

 set tce:printtol 0.02

 task tce
================================================================================

 Output coordinates in angstroms (scale by  1.889725989 to convert to a.u.)

  No.       Tag          Charge          X              Y              Z
 ---- ---------------- ---------- -------------- -------------- --------------
    1 O                    8.0000    -0.09272376     0.00000000    -0.06724420
    2 H1                   1.0000    -0.09272376     0.00000000     0.90826580
    3 H2                   1.0000     0.83451384     0.00000000    -0.37031217

         Total SCF energy =    -76.055011370083

 Vector    2  Occ=2.000000D+00  E=-1.333812D+00

 Vector    3  Occ=2.000000D+00  E=-7.063168D-01

 Vector    4  Occ=2.000000D+00  E=-5.672160D-01

 Vector    5  Occ=2.000000D+00  E=-5.017693D-01

 Vector    6  Occ=0.000000D+00  E= 1.408142D-01

 Vector    7  Occ=0.000000D+00  E= 2.016558D-01

 Vector    8  Occ=0.000000D+00  E= 5.431261D-01

 Vector    9  Occ=0.000000D+00  E= 5.782223D-01

 Vector   10  Occ=0.000000D+00  E= 6.750767D-01

 Vector   11  Occ=0.000000D+00  E= 7.878870D-01

 Vector   12  Occ=0.000000D+00  E= 8.027403D-01

 Vector   13  Occ=0.000000D+00  E= 8.174142D-01

 Vector   14  Occ=0.000000D+00  E= 8.498403D-01

 Vector   15  Occ=0.000000D+00  E= 9.683342D-01

       Multipole analysis of the density wrt the origin
       ------------------------------------------------

     L   x y z        total         open         nuclear
     -   - - -        -----         ----         -------
     0   0 0 0     -0.000000      0.000000     10.000000

     1   1 0 0      0.630823      0.000000      0.000000
     1   0 1 0      0.000000      0.000000      0.000000
     1   0 0 1      0.457479      0.000000     -0.000000

     2   2 0 0     -4.017708      0.000000      2.763263
     2   1 1 0      0.000000      0.000000      0.000000
     2   1 0 1     -0.782670      0.000000     -1.226187
     2   0 2 0     -5.456674      0.000000      0.000000
     2   0 1 1      0.000000      0.000000      0.000000

 CCSD total energy / hartree       =       -76.336683312130219
 Total times  cpu:      635.9s     wall:      635.9s
