============================== echo of input deck ==============================
 echo
 start H2O
 title "H2O"

 memory total 24 gb

 geometry units angstrom
 symmetry c1
   zmatrix
     O
     H1 O 0.97551
     H2 O 0.97551 H1 109.95
   end
 end

 basis spherical
   * library cc-pVTZ
 end

 tce
   2eorb
   2emet 13
   ccsd
   maxiter 300
 end

# set tce:print_integrals T
# set tce:qorb 8
# set tce:qela 5
# set tce:qelb 5

 set tce:qducc T
 set tce:nactv 3
 set tce:nonhf T
 set tce:ducc_model 6

 set tce:printtol 0.02

 task tce
================================================================================

 Output coordinates in angstroms (scale by  1.889725989 to convert to a.u.)

  No.       Tag          Charge          X              Y              Z
 ---- ---------------- ---------- -------------- -------------- --------------
    1 O                    8.0000    -0.09169704     0.00000000    -0.06426660
    2 H1                   1.0000    -0.09169704     0.00000000     0.91124340
    3 H2                   1.0000     0.82527332     0.00000000    -0.39711059

         Total SCF energy =    -76.054608380742

 Vector    2  Occ=2.000000D+00  E=-1.332492D+00

 Vector    3  Occ=2.000000D+00  E=-7.094862D-01

 Vector    4  Occ=2.000000D+00  E=-5.636166D-01

 Vector    5  Occ=2.000000D+00  E=-5.010987D-01

 Vector    6  Occ=0.000000D+00  E= 1.410095D-01

 Vector    7  Occ=0.000000D+00  E= 2.013080D-01

 Vector    8  Occ=0.000000D+00  E= 5.466980D-01

 Vector    9  Occ=0.000000D+00  E= 5.713304D-01

 Vector   10  Occ=0.000000D+00  E= 6.771513D-01

 Vector   11  Occ=0.000000D+00  E= 7.882910D-01

 Vector   12  Occ=0.000000D+00  E= 8.014424D-01

 Vector   13  Occ=0.000000D+00  E= 8.285541D-01

 Vector   14  Occ=0.000000D+00  E= 8.461266D-01

 Vector   15  Occ=0.000000D+00  E= 9.760831D-01

       Multipole analysis of the density wrt the origin
       ------------------------------------------------

     L   x y z        total         open         nuclear
     -   - - -        -----         ----         -------
     0   0 0 0     -0.000000      0.000000     10.000000

     1   1 0 0      0.628038      0.000000      0.000000
     1   0 1 0     -0.000000      0.000000      0.000000
     1   0 0 1      0.440165      0.000000      0.000000

     2   2 0 0     -4.048929      0.000000      2.702407
     2   1 1 0      0.000000      0.000000      0.000000
     2   1 0 1     -0.822208      0.000000     -1.300363
     2   0 2 0     -5.458434      0.000000      0.000000
     2   0 1 1      0.000000      0.000000      0.000000

 CCSD total energy / hartree       =       -76.336165961233917
 Total times  cpu:      635.3s     wall:      635.3s
