============================== echo of input deck ==============================
 echo
 start H2O
 title "H2O"

 memory total 24 gb

 geometry units angstrom
 symmetry c1
   zmatrix
     O
     H1 O 0.97551
     H2 O 0.97551 H1 109.15
   end
 end

 basis spherical
   * library cc-pVTZ
 end

 tce
   2eorb
   2emet 13
   ccsd
   maxiter 300
 end

# set tce:print_integrals T
# set tce:qorb 8
# set tce:qela 5
# set tce:qelb 5

 set tce:qducc T
 set tce:nactv 3
 set tce:nonhf T
 set tce:ducc_model 6

 set tce:printtol 0.02

 task tce
================================================================================

 Output coordinates in angstroms (scale by  1.889725989 to convert to a.u.)

  No.       Tag          Charge          X              Y              Z
 ---- ---------------- ---------- -------------- -------------- --------------
    1 O                    8.0000    -0.09215282     0.00000000    -0.06555014
    2 H1                   1.0000    -0.09215282     0.00000000     0.90995986
    3 H2                   1.0000     0.82937538     0.00000000    -0.38555878

         Total SCF energy =    -76.054803207266

 Vector    2  Occ=2.000000D+00  E=-1.333061D+00

 Vector    3  Occ=2.000000D+00  E=-7.081275D-01

 Vector    4  Occ=2.000000D+00  E=-5.651706D-01

 Vector    5  Occ=2.000000D+00  E=-5.013902D-01

 Vector    6  Occ=0.000000D+00  E= 1.409304D-01

 Vector    7  Occ=0.000000D+00  E= 2.014583D-01

 Vector    8  Occ=0.000000D+00  E= 5.451344D-01

 Vector    9  Occ=0.000000D+00  E= 5.743139D-01

 Vector   10  Occ=0.000000D+00  E= 6.762191D-01

 Vector   11  Occ=0.000000D+00  E= 7.881162D-01

 Vector   12  Occ=0.000000D+00  E= 8.020126D-01

 Vector   13  Occ=0.000000D+00  E= 8.236686D-01

 Vector   14  Occ=0.000000D+00  E= 8.477221D-01

 Vector   15  Occ=0.000000D+00  E= 9.727319D-01

       Multipole analysis of the density wrt the origin
       ------------------------------------------------

     L   x y z        total         open         nuclear
     -   - - -        -----         ----         -------
     0   0 0 0     -0.000000      0.000000     10.000000

     1   1 0 0      0.629317      0.000000      0.000000
     1   0 1 0      0.000000      0.000000      0.000000
     1   0 0 1      0.447646      0.000000      0.000000

     2   2 0 0     -4.035096      0.000000      2.729339
     2   1 1 0      0.000000      0.000000      0.000000
     2   1 0 1     -0.805379      0.000000     -1.268811
     2   0 2 0     -5.457663      0.000000      0.000000
     2   0 1 1     -0.000000      0.000000      0.000000

 CCSD total energy / hartree       =       -76.336408761393059
 Total times  cpu:      635.4s     wall:      635.4s
