============================== echo of input deck ==============================
 echo
 start H2O
 title "H2O"

 memory total 24 gb

 geometry units angstrom
 symmetry c1
   zmatrix
     O
     H1 O 0.97551
     H2 O 0.97551 H1 109.40
   end
 end

 basis spherical
   * library cc-pVTZ
 end

 tce
   2eorb
   2emet 13
   ccsd
   maxiter 300
 end

# set tce:print_integrals T
# set tce:qorb 8
# set tce:qela 5
# set tce:qelb 5

 set tce:qducc T
 set tce:nactv 3
 set tce:nonhf T
 set tce:ducc_model 6

 set tce:printtol 0.02

 task tce
================================================================================

 Output coordinates in angstroms (scale by  1.889725989 to convert to a.u.)

  No.       Tag          Charge          X              Y              Z
 ---- ---------------- ---------- -------------- -------------- --------------
    1 O                    8.0000    -0.09201231     0.00000000    -0.06514835
    2 H1                   1.0000    -0.09201231     0.00000000     0.91036165
    3 H2                   1.0000     0.82811082     0.00000000    -0.38917486

         Total SCF energy =    -76.054745661812

 Vector    2  Occ=2.000000D+00  E=-1.332883D+00

 Vector    3  Occ=2.000000D+00  E=-7.085540D-01

 Vector    4  Occ=2.000000D+00  E=-5.646845D-01

 Vector    5  Occ=2.000000D+00  E=-5.012994D-01

 Vector    6  Occ=0.000000D+00  E= 1.409560D-01

 Vector    7  Occ=0.000000D+00  E= 2.014113D-01

 Vector    8  Occ=0.000000D+00  E= 5.456200D-01

 Vector    9  Occ=0.000000D+00  E= 5.733819D-01

 Vector   10  Occ=0.000000D+00  E= 6.765047D-01

 Vector   11  Occ=0.000000D+00  E= 7.881708D-01

 Vector   12  Occ=0.000000D+00  E= 8.018359D-01

 Vector   13  Occ=0.000000D+00  E= 8.251846D-01

 Vector   14  Occ=0.000000D+00  E= 8.472218D-01

 Vector   15  Occ=0.000000D+00  E= 9.737792D-01

       Multipole analysis of the density wrt the origin
       ------------------------------------------------

     L   x y z        total         open         nuclear
     -   - - -        -----         ----         -------
     0   0 0 0     -0.000000      0.000000     10.000000

     1   1 0 0      0.628930      0.000000      0.000000
     1   0 1 0     -0.000000      0.000000      0.000000
     1   0 0 1      0.445307      0.000000      0.000000

     2   2 0 0     -4.039365      0.000000      2.721022
     2   1 1 0      0.000000      0.000000      0.000000
     2   1 0 1     -0.810683      0.000000     -1.278758
     2   0 2 0     -5.457902      0.000000      0.000000
     2   0 1 1      0.000000      0.000000      0.000000

 CCSD total energy / hartree       =       -76.336335982598911
 Total times  cpu:      653.8s     wall:      653.8s
