============================== echo of input deck ==============================
 echo
 start H2O
 title "H2O"

 memory total 24 gb

 geometry units angstrom
 symmetry c1
   zmatrix
     O
     H1 O 0.97551
     H2 O 0.97551 H1 109.10
   end
 end

 basis spherical
   * library cc-pVTZ
 end

 tce
   2eorb
   2emet 13
   ccsd
   maxiter 300
 end

# set tce:print_integrals T
# set tce:qorb 8
# set tce:qela 5
# set tce:qelb 5

 set tce:qducc T
 set tce:nactv 3
 set tce:nonhf T
 set tce:ducc_model 6

 set tce:printtol 0.02

 task tce
================================================================================

 Output coordinates in angstroms (scale by  1.889725989 to convert to a.u.)

  No.       Tag          Charge          X              Y              Z
 ---- ---------------- ---------- -------------- -------------- --------------
    1 O                    8.0000    -0.09218071     0.00000000    -0.06563057
    2 H1                   1.0000    -0.09218071     0.00000000     0.90987943
    3 H2                   1.0000     0.82962640     0.00000000    -0.38483490

         Total SCF energy =    -76.054814350252

 Vector    2  Occ=2.000000D+00  E=-1.333097D+00

 Vector    3  Occ=2.000000D+00  E=-7.080420D-01

 Vector    4  Occ=2.000000D+00  E=-5.652678D-01

 Vector    5  Occ=2.000000D+00  E=-5.014084D-01

 Vector    6  Occ=0.000000D+00  E= 1.409252D-01

 Vector    7  Occ=0.000000D+00  E= 2.014677D-01

 Vector    8  Occ=0.000000D+00  E= 5.450377D-01

 Vector    9  Occ=0.000000D+00  E= 5.745003D-01

 Vector   10  Occ=0.000000D+00  E= 6.761627D-01

 Vector   11  Occ=0.000000D+00  E= 7.881052D-01

 Vector   12  Occ=0.000000D+00  E= 8.020477D-01

 Vector   13  Occ=0.000000D+00  E= 8.233666D-01

 Vector   14  Occ=0.000000D+00  E= 8.478223D-01

 Vector   15  Occ=0.000000D+00  E= 9.725225D-01

       Multipole analysis of the density wrt the origin
       ------------------------------------------------

     L   x y z        total         open         nuclear
     -   - - -        -----         ----         -------
     0   0 0 0     -0.000000      0.000000     10.000000

     1   1 0 0      0.629393      0.000000      0.000000
     1   0 1 0      0.000000      0.000000      0.000000
     1   0 0 1      0.448114      0.000000      0.000000

     2   2 0 0     -4.034248      0.000000      2.730991
     2   1 1 0      0.000000      0.000000      0.000000
     2   1 0 1     -0.804314      0.000000     -1.266812
     2   0 2 0     -5.457615      0.000000      0.000000
     2   0 1 1     -0.000000      0.000000      0.000000

 CCSD total energy / hartree       =       -76.336422977450184
 Total times  cpu:      668.3s     wall:      668.3s
