============================== echo of input deck ==============================
 echo
 start H2O
 title "H2O"

 memory total 24 gb

 geometry units angstrom
 symmetry c1
   zmatrix
     O
     H1 O 0.97551
     H2 O 0.97551 H1 109.50
   end
 end

 basis spherical
   * library cc-pVTZ
 end

 tce
   2eorb
   2emet 13
   ccsd
   maxiter 300
 end

# set tce:print_integrals T
# set tce:qorb 8
# set tce:qela 5
# set tce:qelb 5

 set tce:qducc T
 set tce:nactv 3
 set tce:nonhf T
 set tce:ducc_model 6

 set tce:printtol 0.02

 task tce
================================================================================

 Output coordinates in angstroms (scale by  1.889725989 to convert to a.u.)

  No.       Tag          Charge          X              Y              Z
 ---- ---------------- ---------- -------------- -------------- --------------
    1 O                    8.0000    -0.09195562     0.00000000    -0.06498781
    2 H1                   1.0000    -0.09195562     0.00000000     0.91052219
    3 H2                   1.0000     0.82760058     0.00000000    -0.39061974

         Total SCF energy =    -76.054721791539

 Vector    2  Occ=2.000000D+00  E=-1.332812D+00

 Vector    3  Occ=2.000000D+00  E=-7.087241D-01

 Vector    4  Occ=2.000000D+00  E=-5.644902D-01

 Vector    5  Occ=2.000000D+00  E=-5.012630D-01

 Vector    6  Occ=0.000000D+00  E= 1.409660D-01

 Vector    7  Occ=0.000000D+00  E= 2.013925D-01

 Vector    8  Occ=0.000000D+00  E= 5.458149D-01

 Vector    9  Occ=0.000000D+00  E= 5.730089D-01

 Vector   10  Occ=0.000000D+00  E= 6.766203D-01

 Vector   11  Occ=0.000000D+00  E= 7.881926D-01

 Vector   12  Occ=0.000000D+00  E= 8.017649D-01

 Vector   13  Occ=0.000000D+00  E= 8.257938D-01

 Vector   14  Occ=0.000000D+00  E= 8.470221D-01

 Vector   15  Occ=0.000000D+00  E= 9.741981D-01

       Multipole analysis of the density wrt the origin
       ------------------------------------------------

     L   x y z        total         open         nuclear
     -   - - -        -----         ----         -------
     0   0 0 0     -0.000000      0.000000     10.000000

     1   1 0 0      0.628772      0.000000      0.000000
     1   0 1 0     -0.000000      0.000000      0.000000
     1   0 0 1      0.444372      0.000000      0.000000

     2   2 0 0     -4.041086      0.000000      2.717670
     2   1 1 0     -0.000000      0.000000      0.000000
     2   1 0 1     -0.812793      0.000000     -1.282715
     2   0 2 0     -5.457998      0.000000      0.000000
     2   0 1 1     -0.000000      0.000000      0.000000

 CCSD total energy / hartree       =       -76.336306080547985
 Total times  cpu:      653.1s     wall:      653.1s
