============================== echo of input deck ==============================
 echo
 start H2O
 title "H2O"

 memory total 24 gb

 geometry units angstrom
 symmetry c1
   zmatrix
     O
     H1 O 0.97551
     H2 O 0.97551 H1 109.35
   end
 end

 basis spherical
   * library cc-pVTZ
 end

 tce
   2eorb
   2emet 13
   ccsd
   maxiter 300
 end

# set tce:print_integrals T
# set tce:qorb 8
# set tce:qela 5
# set tce:qelb 5

 set tce:qducc T
 set tce:nactv 3
 set tce:nonhf T
 set tce:ducc_model 6

 set tce:printtol 0.02

 task tce
================================================================================

 Output coordinates in angstroms (scale by  1.889725989 to convert to a.u.)

  No.       Tag          Charge          X              Y              Z
 ---- ---------------- ---------- -------------- -------------- --------------
    1 O                    8.0000    -0.09204056     0.00000000    -0.06522866
    2 H1                   1.0000    -0.09204056     0.00000000     0.91028134
    3 H2                   1.0000     0.82836500     0.00000000    -0.38845208

         Total SCF energy =    -76.054757414609

 Vector    2  Occ=2.000000D+00  E=-1.332919D+00

 Vector    3  Occ=2.000000D+00  E=-7.084688D-01

 Vector    4  Occ=2.000000D+00  E=-5.647817D-01

 Vector    5  Occ=2.000000D+00  E=-5.013176D-01

 Vector    6  Occ=0.000000D+00  E= 1.409509D-01

 Vector    7  Occ=0.000000D+00  E= 2.014207D-01

 Vector    8  Occ=0.000000D+00  E= 5.455226D-01

 Vector    9  Occ=0.000000D+00  E= 5.735683D-01

 Vector   10  Occ=0.000000D+00  E= 6.764471D-01

 Vector   11  Occ=0.000000D+00  E= 7.881598D-01

 Vector   12  Occ=0.000000D+00  E= 8.018714D-01

 Vector   13  Occ=0.000000D+00  E= 8.248806D-01

 Vector   14  Occ=0.000000D+00  E= 8.473217D-01

 Vector   15  Occ=0.000000D+00  E= 9.735698D-01

       Multipole analysis of the density wrt the origin
       ------------------------------------------------

     L   x y z        total         open         nuclear
     -   - - -        -----         ----         -------
     0   0 0 0     -0.000000      0.000000     10.000000

     1   1 0 0      0.629008      0.000000     -0.000000
     1   0 1 0     -0.000000      0.000000      0.000000
     1   0 0 1      0.445775      0.000000      0.000000

     2   2 0 0     -4.038507      0.000000      2.722693
     2   1 1 0     -0.000000      0.000000      0.000000
     2   1 0 1     -0.809625      0.000000     -1.276775
     2   0 2 0     -5.457854      0.000000      0.000000
     2   0 1 1     -0.000000      0.000000      0.000000

 CCSD total energy / hartree       =       -76.336350764472300
 Total times  cpu:      654.5s     wall:      654.5s
