============================== echo of input deck ==============================
 echo
 start H2O
 title "H2O"

 memory total 24 gb

 geometry units angstrom
 symmetry c1
   zmatrix
     O
     H1 O 0.97551
     H2 O 0.97551 H1 110.00
   end
 end

 basis spherical
   * library cc-pVTZ
 end

 tce
   2eorb
   2emet 13
   ccsd
   maxiter 300
 end

# set tce:print_integrals T
# set tce:qorb 8
# set tce:qela 5
# set tce:qelb 5

 set tce:qducc T
 set tce:nactv 3
 set tce:nonhf T
 set tce:ducc_model 6

 set tce:printtol 0.02

 task tce
================================================================================

 Output coordinates in angstroms (scale by  1.889725989 to convert to a.u.)

  No.       Tag          Charge          X              Y              Z
 ---- ---------------- ---------- -------------- -------------- --------------
    1 O                    8.0000    -0.09166795     0.00000000    -0.06418659
    2 H1                   1.0000    -0.09166795     0.00000000     0.91132341
    3 H2                   1.0000     0.82501159     0.00000000    -0.39783066

         Total SCF energy =    -76.054595176401

 Vector    2  Occ=2.000000D+00  E=-1.332457D+00

 Vector    3  Occ=2.000000D+00  E=-7.095705D-01

 Vector    4  Occ=2.000000D+00  E=-5.635196D-01

 Vector    5  Occ=2.000000D+00  E=-5.010804D-01

 Vector    6  Occ=0.000000D+00  E= 1.410142D-01

 Vector    7  Occ=0.000000D+00  E= 2.012986D-01

 Vector    8  Occ=0.000000D+00  E= 5.467966D-01

 Vector    9  Occ=0.000000D+00  E= 5.711439D-01

 Vector   10  Occ=0.000000D+00  E= 6.772113D-01

 Vector   11  Occ=0.000000D+00  E= 7.883019D-01

 Vector   12  Occ=0.000000D+00  E= 8.014063D-01

 Vector   13  Occ=0.000000D+00  E= 8.288627D-01

 Vector   14  Occ=0.000000D+00  E= 8.460274D-01

 Vector   15  Occ=0.000000D+00  E= 9.762925D-01

       Multipole analysis of the density wrt the origin
       ------------------------------------------------

     L   x y z        total         open         nuclear
     -   - - -        -----         ----         -------
     0   0 0 0     -0.000000      0.000000     10.000000

     1   1 0 0      0.627954      0.000000      0.000000
     1   0 1 0      0.000000      0.000000      0.000000
     1   0 0 1      0.439698      0.000000      0.000000

     2   2 0 0     -4.049810      0.000000      2.700693
     2   1 1 0     -0.000000      0.000000      0.000000
     2   1 0 1     -0.823246      0.000000     -1.302307
     2   0 2 0     -5.458482      0.000000      0.000000
     2   0 1 1      0.000000      0.000000      0.000000

 CCSD total energy / hartree       =       -76.336149833102326
 Total times  cpu:      664.0s     wall:      664.0s
