============================== echo of input deck ==============================
 echo
 start H2O
 title "H2O"

 memory total 24 gb

 geometry units bohr
 symmetry c1
        O  0.00000000  0.00000000  0.00000000
        H  0.00000000  1.7512775  0.00000000
        H  1.72558000 -0.64860000  0.00000000
 end

 basis spherical
   * library cc-pVDZ
 end

 scf
   vectors input h2o.mos
   vectors output h2o.mos
 end

 tce
   2eorb
   2emet 13
   ccsd
   maxiter 300
 end

 set tce:print_integrals T
 set tce:qorb 8
 set tce:qela 5
 set tce:qelb 5

# set tce:qducc T
# set tce:nactv 3
# set tce:nonhf T
# set tce:ducc_model 6

 set tce:printtol 0.02

 task tce
================================================================================

 Output coordinates in a.u. (scale by  1.000000000 to convert to a.u.)

  No.       Tag          Charge          X              Y              Z
 ---- ---------------- ---------- -------------- -------------- --------------
    1 O                    8.0000    -0.17255800    -0.11026775     0.00000000
    2 H                    1.0000    -0.17255800     1.64100975     0.00000000
    3 H                    1.0000     1.55302200    -0.75886775     0.00000000

         Total SCF energy =    -76.024697823353

 Vector    2  Occ=2.000000D+00  E=-1.335586D+00

 Vector    3  Occ=2.000000D+00  E=-7.139276D-01

 Vector    4  Occ=2.000000D+00  E=-5.551408D-01

 Vector    5  Occ=2.000000D+00  E=-4.914030D-01

 Vector    6  Occ=0.000000D+00  E= 1.872546D-01

 Vector    7  Occ=0.000000D+00  E= 2.564418D-01

 Vector    8  Occ=0.000000D+00  E= 8.013258D-01

 Vector    9  Occ=0.000000D+00  E= 8.476743D-01

 Vector   10  Occ=0.000000D+00  E= 1.159717D+00

 Vector   11  Occ=0.000000D+00  E= 1.201318D+00

 Vector   12  Occ=0.000000D+00  E= 1.248017D+00

 Vector   13  Occ=0.000000D+00  E= 1.460118D+00

 Vector   14  Occ=0.000000D+00  E= 1.494923D+00

 Vector   15  Occ=0.000000D+00  E= 1.708869D+00

       Multipole analysis of the density wrt the origin
       ------------------------------------------------

     L   x y z        total         open         nuclear
     -   - - -        -----         ----         -------
     0   0 0 0      0.000000      0.000000     10.000000

     1   1 0 0      0.642184      0.000000     -0.000000
     1   0 1 0      0.423153      0.000000      0.000000
     1   0 0 1     -0.000000      0.000000      0.000000

     2   2 0 0     -3.924056      0.000000      2.679864
     2   1 1 0     -0.771360      0.000000     -1.309487
     2   1 0 1      0.000000      0.000000      0.000000
     2   0 2 0     -3.447254      0.000000      3.366065
     2   0 1 1     -0.000000      0.000000      0.000000

 CCSD total energy / hartree       =       -76.042717616624969
 Total times  cpu:       23.2s     wall:       31.6s
