============================== echo of input deck ==============================
 echo
 start H2O
 title "H2O"

 memory total 24 gb

 geometry units bohr
 symmetry c1
        O  0.00000000  0.00000000  0.00000000
        H  0.00000000  1.81579825  0.00000000
        H  1.72558000 -0.64860000  0.00000000
 end

 basis spherical
   * library cc-pVDZ
 end

 scf
   vectors input h2o.mos
   vectors output h2o.mos
 end

 tce
   2eorb
   2emet 13
   ccsd
   maxiter 300
 end

 set tce:print_integrals T
 set tce:qorb 8
 set tce:qela 5
 set tce:qelb 5

# set tce:qducc T
# set tce:nactv 3
# set tce:nonhf T
# set tce:ducc_model 6

 set tce:printtol 0.02

 task tce
================================================================================

 Output coordinates in a.u. (scale by  1.000000000 to convert to a.u.)

  No.       Tag          Charge          X              Y              Z
 ---- ---------------- ---------- -------------- -------------- --------------
    1 O                    8.0000    -0.17255800    -0.11671983     0.00000000
    2 H                    1.0000    -0.17255800     1.69907843     0.00000000
    3 H                    1.0000     1.55302200    -0.76531983     0.00000000

         Total SCF energy =    -76.024753391019

 Vector    2  Occ=2.000000D+00  E=-1.326527D+00

 Vector    3  Occ=2.000000D+00  E=-7.042508D-01

 Vector    4  Occ=2.000000D+00  E=-5.521883D-01

 Vector    5  Occ=2.000000D+00  E=-4.900307D-01

 Vector    6  Occ=0.000000D+00  E= 1.845253D-01

 Vector    7  Occ=0.000000D+00  E= 2.540222D-01

 Vector    8  Occ=0.000000D+00  E= 8.011206D-01

 Vector    9  Occ=0.000000D+00  E= 8.186883D-01

 Vector   10  Occ=0.000000D+00  E= 1.161920D+00

 Vector   11  Occ=0.000000D+00  E= 1.201893D+00

 Vector   12  Occ=0.000000D+00  E= 1.247638D+00

 Vector   13  Occ=0.000000D+00  E= 1.455450D+00

 Vector   14  Occ=0.000000D+00  E= 1.497171D+00

 Vector   15  Occ=0.000000D+00  E= 1.704122D+00

       Multipole analysis of the density wrt the origin
       ------------------------------------------------

     L   x y z        total         open         nuclear
     -   - - -        -----         ----         -------
     0   0 0 0      0.000000      0.000000     10.000000

     1   1 0 0      0.639985      0.000000     -0.000000
     1   0 1 0      0.436896      0.000000      0.000000
     1   0 0 1     -0.000000      0.000000      0.000000

     2   2 0 0     -3.950461      0.000000      2.679864
     2   1 1 0     -0.778964      0.000000     -1.320621
     2   1 0 1      0.000000      0.000000      0.000000
     2   0 2 0     -3.396196      0.000000      3.581570
     2   0 1 1     -0.000000      0.000000      0.000000

 CCSD total energy / hartree       =       -76.042444985281037
 Total times  cpu:       22.3s     wall:       31.2s
