============================== echo of input deck ==============================
 echo
 start H2O
 title "H2O"

 memory total 24 gb

 geometry units bohr
 symmetry c1
        O  0.00000000  0.00000000  0.00000000
        H  0.00000000  1.8987535  0.00000000
        H  1.72558000 -0.64860000  0.00000000
 end

 basis spherical
   * library cc-pVDZ
 end

 scf
   vectors input h2o.mos
   vectors output h2o.mos
 end

 tce
   2eorb
   2emet 13
   ccsd
   maxiter 300
 end

 set tce:print_integrals T
 set tce:qorb 8
 set tce:qela 5
 set tce:qelb 5

# set tce:qducc T
# set tce:nactv 3
# set tce:nonhf T
# set tce:ducc_model 6

 set tce:printtol 0.02

 task tce
================================================================================

 Output coordinates in a.u. (scale by  1.000000000 to convert to a.u.)

  No.       Tag          Charge          X              Y              Z
 ---- ---------------- ---------- -------------- -------------- --------------
    1 O                    8.0000    -0.17255800    -0.12501535     0.00000000
    2 H                    1.0000    -0.17255800     1.77373815     0.00000000
    3 H                    1.0000     1.55302200    -0.77361535     0.00000000

         Total SCF energy =    -76.021443405206

 Vector    2  Occ=2.000000D+00  E=-1.316304D+00

 Vector    3  Occ=2.000000D+00  E=-6.923950D-01

 Vector    4  Occ=2.000000D+00  E=-5.482331D-01

 Vector    5  Occ=2.000000D+00  E=-4.885197D-01

 Vector    6  Occ=0.000000D+00  E= 1.802578D-01

 Vector    7  Occ=0.000000D+00  E= 2.508373D-01

 Vector    8  Occ=0.000000D+00  E= 7.801586D-01

 Vector    9  Occ=0.000000D+00  E= 8.058286D-01

 Vector   10  Occ=0.000000D+00  E= 1.163361D+00

 Vector   11  Occ=0.000000D+00  E= 1.200981D+00

 Vector   12  Occ=0.000000D+00  E= 1.249238D+00

 Vector   13  Occ=0.000000D+00  E= 1.451195D+00

 Vector   14  Occ=0.000000D+00  E= 1.500896D+00

 Vector   15  Occ=0.000000D+00  E= 1.699084D+00

       Multipole analysis of the density wrt the origin
       ------------------------------------------------

     L   x y z        total         open         nuclear
     -   - - -        -----         ----         -------
     0   0 0 0      0.000000      0.000000     10.000000

     1   1 0 0      0.637544      0.000000     -0.000000
     1   0 1 0      0.453392      0.000000     -0.000000
     1   0 0 1     -0.000000      0.000000      0.000000

     2   2 0 0     -3.983808      0.000000      2.679864
     2   1 1 0     -0.788344      0.000000     -1.334935
     2   1 0 1      0.000000      0.000000      0.000000
     2   0 2 0     -3.327727      0.000000      3.869658
     2   0 1 1     -0.000000      0.000000      0.000000

 CCSD total energy / hartree       =       -76.041671152311636
 Total times  cpu:       22.6s     wall:       30.5s
