============================== echo of input deck ==============================
 echo
 start H2O
 title "H2O"

 memory total 24 gb

 geometry units bohr
 symmetry c1
        O  0.00000000  0.00000000  0.00000000
        H  0.00000000  1.90797075  0.00000000
        H  1.72558000 -0.64860000  0.00000000
 end

 basis spherical
   * library cc-pVDZ
 end

 scf
   vectors input h2o.mos
   vectors output h2o.mos
 end

 tce
   2eorb
   2emet 13
   ccsd
   maxiter 300
 end

 set tce:print_integrals T
 set tce:qorb 8
 set tce:qela 5
 set tce:qelb 5

# set tce:qducc T
# set tce:nactv 3
# set tce:nonhf T
# set tce:ducc_model 6

 set tce:printtol 0.02

 task tce
================================================================================

 Output coordinates in a.u. (scale by  1.000000000 to convert to a.u.)

  No.       Tag          Charge          X              Y              Z
 ---- ---------------- ---------- -------------- -------------- --------------
    1 O                    8.0000    -0.17255800    -0.12593708     0.00000000
    2 H                    1.0000    -0.17255800     1.78203368     0.00000000
    3 H                    1.0000     1.55302200    -0.77453708     0.00000000

         Total SCF energy =    -76.020882694322

 Vector    2  Occ=2.000000D+00  E=-1.315261D+00

 Vector    3  Occ=2.000000D+00  E=-6.911240D-01

 Vector    4  Occ=2.000000D+00  E=-5.477801D-01

 Vector    5  Occ=2.000000D+00  E=-4.883696D-01

 Vector    6  Occ=0.000000D+00  E= 1.797266D-01

 Vector    7  Occ=0.000000D+00  E= 2.504815D-01

 Vector    8  Occ=0.000000D+00  E= 7.766630D-01

 Vector    9  Occ=0.000000D+00  E= 8.058261D-01

 Vector   10  Occ=0.000000D+00  E= 1.163420D+00

 Vector   11  Occ=0.000000D+00  E= 1.200779D+00

 Vector   12  Occ=0.000000D+00  E= 1.249567D+00

 Vector   13  Occ=0.000000D+00  E= 1.450840D+00

 Vector   14  Occ=0.000000D+00  E= 1.501357D+00

 Vector   15  Occ=0.000000D+00  E= 1.698579D+00

       Multipole analysis of the density wrt the origin
       ------------------------------------------------

     L   x y z        total         open         nuclear
     -   - - -        -----         ----         -------
     0   0 0 0      0.000000      0.000000     10.000000

     1   1 0 0      0.637299      0.000000     -0.000000
     1   0 1 0      0.455134      0.000000     -0.000000
     1   0 0 1     -0.000000      0.000000      0.000000

     2   2 0 0     -3.987469      0.000000      2.679864
     2   1 1 0     -0.789362      0.000000     -1.336526
     2   1 0 1      0.000000      0.000000      0.000000
     2   0 2 0     -3.319959      0.000000      3.902433
     2   0 1 1     -0.000000      0.000000      0.000000

 CCSD total energy / hartree       =       -76.041438137929873
 Total times  cpu:       22.1s     wall:       30.8s
