============================== echo of input deck ==============================
 echo
 start H2O
 title "H2O"

 memory total 24 gb

 geometry units bohr
 symmetry c1
        O  0.00000000  0.00000000  0.00000000
        H  0.00000000  2.18448825  0.00000000
        H  1.72558000 -0.64860000  0.00000000
 end

 basis spherical
   * library cc-pVDZ
 end

 scf
   vectors input h2o.mos
   vectors output h2o.mos
 end

 tce
   2eorb
   2emet 13
   ccsd
   maxiter 300
 end

 set tce:print_integrals T
 set tce:qorb 8
 set tce:qela 5
 set tce:qelb 5

# set tce:qducc T
# set tce:nactv 3
# set tce:nonhf T
# set tce:ducc_model 6

 set tce:printtol 0.02

 task tce
================================================================================

 Output coordinates in a.u. (scale by  1.000000000 to convert to a.u.)

  No.       Tag          Charge          X              Y              Z
 ---- ---------------- ---------- -------------- -------------- --------------
    1 O                    8.0000    -0.17255800    -0.15358883     0.00000000
    2 H                    1.0000    -0.17255800     2.03089943     0.00000000
    3 H                    1.0000     1.55302200    -0.80218883     0.00000000

         Total SCF energy =    -75.992653282917

 Vector    2  Occ=2.000000D+00  E=-1.291270D+00

 Vector    3  Occ=2.000000D+00  E=-6.581761D-01

 Vector    4  Occ=2.000000D+00  E=-5.324798D-01

 Vector    5  Occ=2.000000D+00  E=-4.854627D-01

 Vector    6  Occ=0.000000D+00  E= 1.579245D-01

 Vector    7  Occ=0.000000D+00  E= 2.403849D-01

 Vector    8  Occ=0.000000D+00  E= 6.907000D-01

 Vector    9  Occ=0.000000D+00  E= 8.098406D-01

 Vector   10  Occ=0.000000D+00  E= 1.157873D+00

 Vector   11  Occ=0.000000D+00  E= 1.189116D+00

 Vector   12  Occ=0.000000D+00  E= 1.271210D+00

 Vector   13  Occ=0.000000D+00  E= 1.448897D+00

 Vector   14  Occ=0.000000D+00  E= 1.517474D+00

 Vector   15  Occ=0.000000D+00  E= 1.685353D+00

       Multipole analysis of the density wrt the origin
       ------------------------------------------------

     L   x y z        total         open         nuclear
     -   - - -        -----         ----         -------
     0   0 0 0     -0.000000      0.000000     10.000000

     1   1 0 0      0.632044      0.000000     -0.000000
     1   0 1 0      0.497645      0.000000      0.000000
     1   0 0 1     -0.000000      0.000000      0.000000

     2   2 0 0     -4.093044      0.000000      2.679864
     2   1 1 0     -0.816931      0.000000     -1.384241
     2   1 0 1      0.000000      0.000000      0.000000
     2   0 2 0     -3.079028      0.000000      4.956776
     2   0 1 1     -0.000000      0.000000      0.000000

 CCSD total energy / hartree       =       -76.021234194420870
 Total times  cpu:       28.1s     wall:       39.1s
