============================== echo of input deck ==============================
 echo
 start H2O
 title "H2O"

 memory total 24 gb

 geometry units bohr
 symmetry c1
        O  0.00000000  0.00000000  0.00000000
        H  0.00000000  2.3411815  0.00000000
        H  1.72558000 -0.64860000  0.00000000
 end

 basis spherical
   * library cc-pVDZ
 end

 scf
   vectors input h2o.mos
   vectors output h2o.mos
 end

 tce
   2eorb
   2emet 13
   ccsd
   maxiter 300
 end

 set tce:print_integrals T
 set tce:qorb 8
 set tce:qela 5
 set tce:qelb 5

# set tce:qducc T
# set tce:nactv 3
# set tce:nonhf T
# set tce:ducc_model 6

 set tce:printtol 0.02

 task tce
================================================================================

 Output coordinates in a.u. (scale by  1.000000000 to convert to a.u.)

  No.       Tag          Charge          X              Y              Z
 ---- ---------------- ---------- -------------- -------------- --------------
    1 O                    8.0000    -0.17255800    -0.16925815     0.00000000
    2 H                    1.0000    -0.17255800     2.17192335     0.00000000
    3 H                    1.0000     1.55302200    -0.81785815     0.00000000

         Total SCF energy =    -75.971319988927

 Vector    2  Occ=2.000000D+00  E=-1.282775D+00

 Vector    3  Occ=2.000000D+00  E=-6.445355D-01

 Vector    4  Occ=2.000000D+00  E=-5.220092D-01

 Vector    5  Occ=2.000000D+00  E=-4.850934D-01

 Vector    6  Occ=0.000000D+00  E= 1.408060D-01

 Vector    7  Occ=0.000000D+00  E= 2.356612D-01

 Vector    8  Occ=0.000000D+00  E= 6.591919D-01

 Vector    9  Occ=0.000000D+00  E= 8.123203D-01

 Vector   10  Occ=0.000000D+00  E= 1.152017D+00

 Vector   11  Occ=0.000000D+00  E= 1.181092D+00

 Vector   12  Occ=0.000000D+00  E= 1.289064D+00

 Vector   13  Occ=0.000000D+00  E= 1.452453D+00

 Vector   14  Occ=0.000000D+00  E= 1.526710D+00

 Vector   15  Occ=0.000000D+00  E= 1.677302D+00

       Multipole analysis of the density wrt the origin
       ------------------------------------------------

     L   x y z        total         open         nuclear
     -   - - -        -----         ----         -------
     0   0 0 0     -0.000000      0.000000     10.000000

     1   1 0 0      0.630612      0.000000     -0.000000
     1   0 1 0      0.512212      0.000000      0.000000
     1   0 0 1     -0.000000      0.000000      0.000000

     2   2 0 0     -4.148911      0.000000      2.679864
     2   1 1 0     -0.829553      0.000000     -1.411280
     2   1 0 1      0.000000      0.000000      0.000000
     2   0 2 0     -2.942824      0.000000      5.615330
     2   0 1 1      0.000000      0.000000      0.000000

 CCSD total energy / hartree       =       -76.004984658850105
 Total times  cpu:       30.4s     wall:       41.8s
