============================== echo of input deck ==============================
 echo
 start H2O
 title "H2O"

 memory total 24 gb

 geometry units bohr
 symmetry c1
        O  0.00000000  0.00000000  0.00000000
        H  0.00000000  2.58083  0.00000000
        H  1.72558000 -0.64860000  0.00000000
 end

 basis spherical
   * library cc-pVDZ
 end

 scf
   vectors input h2o.mos
   vectors output h2o.mos
 end

 tce
   2eorb
   2emet 13
   ccsd
   maxiter 300
 end

 set tce:print_integrals T
 set tce:qorb 8
 set tce:qela 5
 set tce:qelb 5

# set tce:qducc T
# set tce:nactv 3
# set tce:nonhf T
# set tce:ducc_model 6

 set tce:printtol 0.02

 task tce
================================================================================

 Output coordinates in a.u. (scale by  1.000000000 to convert to a.u.)

  No.       Tag          Charge          X              Y              Z
 ---- ---------------- ---------- -------------- -------------- --------------
    1 O                    8.0000    -0.17255800    -0.19322300     0.00000000
    2 H                    1.0000    -0.17255800     2.38760700     0.00000000
    3 H                    1.0000     1.55302200    -0.84182300     0.00000000

         Total SCF energy =    -75.936812783916

 Vector    2  Occ=2.000000D+00  E=-1.274853D+00

 Vector    3  Occ=2.000000D+00  E=-6.306713D-01

 Vector    4  Occ=2.000000D+00  E=-5.036226D-01

 Vector    5  Occ=2.000000D+00  E=-4.860407D-01

 Vector    6  Occ=0.000000D+00  E= 1.105084D-01

 Vector    7  Occ=0.000000D+00  E= 2.299107D-01

 Vector    8  Occ=0.000000D+00  E= 6.298491D-01

 Vector    9  Occ=0.000000D+00  E= 8.154755D-01

 Vector   10  Occ=0.000000D+00  E= 1.144870D+00

 Vector   11  Occ=0.000000D+00  E= 1.171524D+00

 Vector   12  Occ=0.000000D+00  E= 1.315449D+00

 Vector   13  Occ=0.000000D+00  E= 1.459406D+00

 Vector   14  Occ=0.000000D+00  E= 1.537655D+00

 Vector   15  Occ=0.000000D+00  E= 1.650533D+00

       Multipole analysis of the density wrt the origin
       ------------------------------------------------

     L   x y z        total         open         nuclear
     -   - - -        -----         ----         -------
     0   0 0 0     -0.000000      0.000000     10.000000

     1   1 0 0      0.630094      0.000000     -0.000000
     1   0 1 0      0.519992      0.000000      0.000000
     1   0 0 1     -0.000000      0.000000      0.000000

     2   2 0 0     -4.228068      0.000000      2.679864
     2   1 1 0     -0.843863      0.000000     -1.452633
     2   1 0 1     -0.000000      0.000000      0.000000
     2   0 2 0     -2.748467      0.000000      6.708014
     2   0 1 1      0.000000      0.000000      0.000000

 CCSD total energy / hartree       =       -75.979365246184727
 Total times  cpu:       29.6s     wall:       41.3s
