============================== echo of input deck ==============================
 echo
 start H2O
 title "H2O"

 memory total 24 gb

 geometry units bohr
 symmetry c1
        O  0.00000000  0.00000000  0.00000000
        H  0.00000000  2.617699  0.00000000
        H  1.72558000 -0.64860000  0.00000000
 end

 basis spherical
   * library cc-pVDZ
 end

 scf
   vectors input h2o.mos
   vectors output h2o.mos
 end

 tce
   2eorb
   2emet 13
   ccsd
   maxiter 300
 end

 set tce:print_integrals T
 set tce:qorb 8
 set tce:qela 5
 set tce:qelb 5

# set tce:qducc T
# set tce:nactv 3
# set tce:nonhf T
# set tce:ducc_model 6

 set tce:printtol 0.02

 task tce
================================================================================

 Output coordinates in a.u. (scale by  1.000000000 to convert to a.u.)

  No.       Tag          Charge          X              Y              Z
 ---- ---------------- ---------- -------------- -------------- --------------
    1 O                    8.0000    -0.17255800    -0.19690990     0.00000000
    2 H                    1.0000    -0.17255800     2.42078910     0.00000000
    3 H                    1.0000     1.55302200    -0.84550990     0.00000000

         Total SCF energy =    -75.931510176959

 Vector    2  Occ=2.000000D+00  E=-1.274064D+00

 Vector    3  Occ=2.000000D+00  E=-6.292022D-01

 Vector    4  Occ=2.000000D+00  E=-5.006101D-01

 Vector    5  Occ=2.000000D+00  E=-4.863245D-01

 Vector    6  Occ=0.000000D+00  E= 1.056379D-01

 Vector    7  Occ=0.000000D+00  E= 2.291481D-01

 Vector    8  Occ=0.000000D+00  E= 6.269601D-01

 Vector    9  Occ=0.000000D+00  E= 8.158678D-01

 Vector   10  Occ=0.000000D+00  E= 1.144146D+00

 Vector   11  Occ=0.000000D+00  E= 1.170479D+00

 Vector   12  Occ=0.000000D+00  E= 1.318895D+00

 Vector   13  Occ=0.000000D+00  E= 1.460416D+00

 Vector   14  Occ=0.000000D+00  E= 1.538777D+00

 Vector   15  Occ=0.000000D+00  E= 1.630151D+00

       Multipole analysis of the density wrt the origin
       ------------------------------------------------

     L   x y z        total         open         nuclear
     -   - - -        -----         ----         -------
     0   0 0 0     -0.000000      0.000000     10.000000

     1   1 0 0      0.630165      0.000000     -0.000000
     1   0 1 0      0.519667      0.000000      0.000000
     1   0 0 1     -0.000000      0.000000      0.000000

     2   2 0 0     -4.239515      0.000000      2.679864
     2   1 1 0     -0.845512      0.000000     -1.458995
     2   1 0 1     -0.000000      0.000000      0.000000
     2   0 2 0     -2.720768      0.000000      6.885295
     2   0 1 1      0.000000      0.000000      0.000000

 CCSD total energy / hartree       =       -75.975557552028079
 Total times  cpu:       29.7s     wall:       41.2s
