============================== echo of input deck ==============================
 echo
 start H2O
 title "H2O"

 memory total 24 gb

 geometry units bohr
 symmetry c1
        O  0.00000000  0.00000000  0.00000000
        H  0.00000000  3.502555  0.00000000
        H  1.72558000 -0.64860000  0.00000000
 end

 basis spherical
   * library cc-pVDZ
 end

 scf
   vectors input h2o.mos
   vectors output h2o.mos
 end

 tce
   2eorb
   2emet 13
   ccsd
   maxiter 300
 end

 set tce:print_integrals T
 set tce:qorb 8
 set tce:qela 5
 set tce:qelb 5

# set tce:qducc T
# set tce:nactv 3
# set tce:nonhf T
# set tce:ducc_model 6

 set tce:printtol 0.02

 task tce
================================================================================

 Output coordinates in a.u. (scale by  1.000000000 to convert to a.u.)

  No.       Tag          Charge          X              Y              Z
 ---- ---------------- ---------- -------------- -------------- --------------
    1 O                    8.0000    -0.17255800    -0.28539550     0.00000000
    2 H                    1.0000    -0.17255800     3.21715950     0.00000000
    3 H                    1.0000     1.55302200    -0.93399550     0.00000000

         Total SCF energy =    -75.820230898909

 Vector    2  Occ=2.000000D+00  E=-1.272947D+00

 Vector    3  Occ=2.000000D+00  E=-6.223964D-01

 Vector    4  Occ=2.000000D+00  E=-4.985870D-01

 Vector    5  Occ=2.000000D+00  E=-4.303074D-01

 Vector    6  Occ=0.000000D+00  E= 8.945314D-04

 Vector    7  Occ=0.000000D+00  E= 2.152452D-01

 Vector    8  Occ=0.000000D+00  E= 6.250092D-01

 Vector    9  Occ=0.000000D+00  E= 8.173079D-01

 Vector   10  Occ=0.000000D+00  E= 1.155034D+00

 Vector   11  Occ=0.000000D+00  E= 1.172717D+00

 Vector   12  Occ=0.000000D+00  E= 1.216651D+00

 Vector   13  Occ=0.000000D+00  E= 1.449189D+00

 Vector   14  Occ=0.000000D+00  E= 1.464581D+00

 Vector   15  Occ=0.000000D+00  E= 1.508635D+00

       Multipole analysis of the density wrt the origin
       ------------------------------------------------

     L   x y z        total         open         nuclear
     -   - - -        -----         ----         -------
     0   0 0 0     -0.000000      0.000000     10.000000

     1   1 0 0      0.638920      0.000000     -0.000000
     1   0 1 0      0.430703      0.000000      0.000000
     1   0 0 1      0.000000      0.000000      0.000000

     2   2 0 0     -4.451453      0.000000      2.679864
     2   1 1 0     -0.850685      0.000000     -1.611684
     2   1 0 1     -0.000000      0.000000      0.000000
     2   0 2 0     -2.269979      0.000000     11.874068
     2   0 1 1      0.000000      0.000000      0.000000

 CCSD total energy / hartree       =       -75.909804190155072
 Total times  cpu:       39.6s     wall:       54.7s
