============================== echo of input deck ==============================
 echo
 start H2O
 title "H2O"

 memory total 24 gb

 geometry units bohr
 symmetry c1
        O  0.00000000  0.00000000  0.00000000
        H  0.00000000  3.7790725  0.00000000
        H  1.72558000 -0.64860000  0.00000000
 end

 basis spherical
   * library cc-pVDZ
 end

 scf
   vectors input h2o.mos
   vectors output h2o.mos
 end

 tce
   2eorb
   2emet 13
   ccsd
   maxiter 300
 end

 set tce:print_integrals T
 set tce:qorb 8
 set tce:qela 5
 set tce:qelb 5

# set tce:qducc T
# set tce:nactv 3
# set tce:nonhf T
# set tce:ducc_model 6

 set tce:printtol 0.02

 task tce
================================================================================

 Output coordinates in a.u. (scale by  1.000000000 to convert to a.u.)

  No.       Tag          Charge          X              Y              Z
 ---- ---------------- ---------- -------------- -------------- --------------
    1 O                    8.0000    -0.17255800    -0.31304725     0.00000000
    2 H                    1.0000    -0.17255800     3.46602525     0.00000000
    3 H                    1.0000     1.55302200    -0.96164725     0.00000000

         Total SCF energy =    -75.792864096110

 Vector    2  Occ=2.000000D+00  E=-1.275533D+00

 Vector    3  Occ=2.000000D+00  E=-6.248744D-01

 Vector    4  Occ=2.000000D+00  E=-5.028157D-01

 Vector    5  Occ=2.000000D+00  E=-4.122411D-01

 Vector    6  Occ=0.000000D+00  E=-2.381896D-02

 Vector    7  Occ=0.000000D+00  E= 2.118937D-01

 Vector    8  Occ=0.000000D+00  E= 6.335643D-01

 Vector    9  Occ=0.000000D+00  E= 8.157545D-01

 Vector   10  Occ=0.000000D+00  E= 1.158442D+00

 Vector   11  Occ=0.000000D+00  E= 1.177088D+00

 Vector   12  Occ=0.000000D+00  E= 1.181805D+00

 Vector   13  Occ=0.000000D+00  E= 1.458027D+00

 Vector   14  Occ=0.000000D+00  E= 1.459259D+00

 Vector   15  Occ=0.000000D+00  E= 1.488937D+00

       Multipole analysis of the density wrt the origin
       ------------------------------------------------

     L   x y z        total         open         nuclear
     -   - - -        -----         ----         -------
     0   0 0 0     -0.000000      0.000000     10.000000

     1   1 0 0      0.642819      0.000000     -0.000000
     1   0 1 0      0.390096      0.000000      0.000000
     1   0 0 1     -0.000000      0.000000      0.000000

     2   2 0 0     -4.494627      0.000000      2.679864
     2   1 1 0     -0.845199      0.000000     -1.659399
     2   1 0 1      0.000000      0.000000      0.000000
     2   0 2 0     -2.198471      0.000000     13.722085
     2   0 1 1      0.000000      0.000000      0.000000

 CCSD total energy / hartree       =       -75.899337648219557
 Total times  cpu:       39.0s     wall:       54.6s
