============================== echo of input deck ==============================
 echo
 start H2O
 title "H2O"

 memory total 24 gb

 geometry units bohr
 symmetry c1
        O  0.00000000  0.00000000  0.00000000
        H  0.00000000  3.871245  0.00000000
        H  1.72558000 -0.64860000  0.00000000
 end

 basis spherical
   * library cc-pVDZ
 end

 scf
   vectors input h2o.mos
   vectors output h2o.mos
 end

 tce
   2eorb
   2emet 13
   ccsd
   maxiter 300
 end

 set tce:print_integrals T
 set tce:qorb 8
 set tce:qela 5
 set tce:qelb 5

# set tce:qducc T
# set tce:nactv 3
# set tce:nonhf T
# set tce:ducc_model 6

 set tce:printtol 0.02

 task tce
================================================================================

 Output coordinates in a.u. (scale by  1.000000000 to convert to a.u.)

  No.       Tag          Charge          X              Y              Z
 ---- ---------------- ---------- -------------- -------------- --------------
    1 O                    8.0000    -0.17255800    -0.32226450     0.00000000
    2 H                    1.0000    -0.17255800     3.54898050     0.00000000
    3 H                    1.0000     1.55302200    -0.97086450     0.00000000

         Total SCF energy =    -75.784474023243

 Vector    2  Occ=2.000000D+00  E=-1.276443D+00

 Vector    3  Occ=2.000000D+00  E=-6.257911D-01

 Vector    4  Occ=2.000000D+00  E=-5.041446D-01

 Vector    5  Occ=2.000000D+00  E=-4.067089D-01

 Vector    6  Occ=0.000000D+00  E=-3.125001D-02

 Vector    7  Occ=0.000000D+00  E= 2.108585D-01

 Vector    8  Occ=0.000000D+00  E= 6.358976D-01

 Vector    9  Occ=0.000000D+00  E= 8.151746D-01

 Vector   10  Occ=0.000000D+00  E= 1.156912D+00

 Vector   11  Occ=0.000000D+00  E= 1.178175D+00

 Vector   12  Occ=0.000000D+00  E= 1.178288D+00

 Vector   13  Occ=0.000000D+00  E= 1.457314D+00

 Vector   14  Occ=0.000000D+00  E= 1.459880D+00

 Vector   15  Occ=0.000000D+00  E= 1.483976D+00

       Multipole analysis of the density wrt the origin
       ------------------------------------------------

     L   x y z        total         open         nuclear
     -   - - -        -----         ----         -------
     0   0 0 0     -0.000000      0.000000     10.000000

     1   1 0 0      0.644119      0.000000     -0.000000
     1   0 1 0      0.376783      0.000000      0.000000
     1   0 0 1      0.000000      0.000000      0.000000

     2   2 0 0     -4.506950      0.000000      2.679864
     2   1 1 0     -0.843245      0.000000     -1.675304
     2   1 0 1     -0.000000      0.000000      0.000000
     2   0 2 0     -2.179950      0.000000     14.368676
     2   0 1 1      0.000000      0.000000      0.000000

 CCSD total energy / hartree       =       -75.896696252218774
 Total times  cpu:       39.5s     wall:       54.5s
