============================== echo of input deck ==============================
 echo
 start H2O
 title "H2O"

 memory total 24 gb

 geometry units bohr
 symmetry c1
        O  0.00000000  0.00000000  0.00000000
        H  0.00000000  4.1477625  0.00000000
        H  1.72558000 -0.64860000  0.00000000
 end

 basis spherical
   * library cc-pVDZ
 end

 scf
   vectors input h2o.mos
   vectors output h2o.mos
 end

 tce
   2eorb
   2emet 13
   ccsd
   maxiter 300
 end

 set tce:print_integrals T
 set tce:qorb 8
 set tce:qela 5
 set tce:qelb 5

# set tce:qducc T
# set tce:nactv 3
# set tce:nonhf T
# set tce:ducc_model 6

 set tce:printtol 0.02

 task tce
================================================================================

 Output coordinates in a.u. (scale by  1.000000000 to convert to a.u.)

  No.       Tag          Charge          X              Y              Z
 ---- ---------------- ---------- -------------- -------------- --------------
    1 O                    8.0000    -0.17255800    -0.34991625     0.00000000
    2 H                    1.0000    -0.17255800     3.79784625     0.00000000
    3 H                    1.0000     1.55302200    -0.99851625     0.00000000

         Total SCF energy =    -75.761325207913

 Vector    2  Occ=2.000000D+00  E=-1.279129D+00

 Vector    3  Occ=2.000000D+00  E=-6.285686D-01

 Vector    4  Occ=2.000000D+00  E=-5.078086D-01

 Vector    5  Occ=2.000000D+00  E=-3.914849D-01

 Vector    6  Occ=0.000000D+00  E=-5.139309D-02

 Vector    7  Occ=0.000000D+00  E= 2.079885D-01

 Vector    8  Occ=0.000000D+00  E= 6.400522D-01

 Vector    9  Occ=0.000000D+00  E= 8.133755D-01

 Vector   10  Occ=0.000000D+00  E= 1.153835D+00

 Vector   11  Occ=0.000000D+00  E= 1.179143D+00

 Vector   12  Occ=0.000000D+00  E= 1.180803D+00

 Vector   13  Occ=0.000000D+00  E= 1.451798D+00

 Vector   14  Occ=0.000000D+00  E= 1.458346D+00

 Vector   15  Occ=0.000000D+00  E= 1.477485D+00

       Multipole analysis of the density wrt the origin
       ------------------------------------------------

     L   x y z        total         open         nuclear
     -   - - -        -----         ----         -------
     0   0 0 0     -0.000000      0.000000     10.000000

     1   1 0 0      0.647968      0.000000     -0.000000
     1   0 1 0      0.338504      0.000000      0.000000
     1   0 0 1     -0.000000      0.000000      0.000000

     2   2 0 0     -4.538343      0.000000      2.679864
     2   1 1 0     -0.837575      0.000000     -1.723020
     2   1 0 1      0.000000      0.000000      0.000000
     2   0 2 0     -2.139416      0.000000     16.400202
     2   0 1 1      0.000000      0.000000      0.000000

 CCSD total energy / hartree       =       -75.890841629758214
 Total times  cpu:       39.2s     wall:       54.0s
