============================== echo of input deck ==============================
 echo
 start H2O
 title "H2O"

 memory total 24 gb

 geometry units bohr
 symmetry c1
        O  0.00000000  0.00000000  0.00000000
        H  0.00000000  4.977315  0.00000000
        H  1.72558000 -0.64860000  0.00000000
 end

 basis spherical
   * library cc-pVDZ
 end

 scf
   vectors input h2o.mos
   vectors output h2o.mos
 end

 tce
   2eorb
   2emet 13
   ccsd
   maxiter 300
 end

 set tce:print_integrals T
 set tce:qorb 8
 set tce:qela 5
 set tce:qelb 5

# set tce:qducc T
# set tce:nactv 3
# set tce:nonhf T
# set tce:ducc_model 6

 set tce:printtol 0.02

 task tce
================================================================================

 Output coordinates in a.u. (scale by  1.000000000 to convert to a.u.)

  No.       Tag          Charge          X              Y              Z
 ---- ---------------- ---------- -------------- -------------- --------------
    1 O                    8.0000    -0.17255800    -0.43287150     0.00000000
    2 H                    1.0000    -0.17255800     4.54444350     0.00000000
    3 H                    1.0000     1.55302200    -1.08147150     0.00000000

         Total SCF energy =    -75.707104333450

 Vector    2  Occ=2.000000D+00  E=-1.285120D+00

 Vector    3  Occ=2.000000D+00  E=-6.349718D-01

 Vector    4  Occ=2.000000D+00  E=-5.151616D-01

 Vector    5  Occ=2.000000D+00  E=-3.559426D-01

 Vector    6  Occ=0.000000D+00  E=-9.648280D-02

 Vector    7  Occ=0.000000D+00  E= 2.016220D-01

 Vector    8  Occ=0.000000D+00  E= 6.299623D-01

 Vector    9  Occ=0.000000D+00  E= 8.084892D-01

 Vector   10  Occ=0.000000D+00  E= 1.173055D+00

 Vector   11  Occ=0.000000D+00  E= 1.181319D+00

 Vector   12  Occ=0.000000D+00  E= 1.207079D+00

 Vector   13  Occ=0.000000D+00  E= 1.442174D+00

 Vector   14  Occ=0.000000D+00  E= 1.442969D+00

 Vector   15  Occ=0.000000D+00  E= 1.468660D+00

       Multipole analysis of the density wrt the origin
       ------------------------------------------------

     L   x y z        total         open         nuclear
     -   - - -        -----         ----         -------
     0   0 0 0     -0.000000      0.000000     10.000000

     1   1 0 0      0.657586      0.000000     -0.000000
     1   0 1 0      0.249654      0.000000     -0.000000
     1   0 0 1     -0.000000      0.000000      0.000000

     2   2 0 0     -4.591630      0.000000      2.679864
     2   1 1 0     -0.827218      0.000000     -1.866166
     2   1 0 1     -0.000000      0.000000      0.000000
     2   0 2 0     -2.122692      0.000000     23.320569
     2   0 1 1     -0.000000      0.000000      0.000000

 CCSD total energy / hartree       =       -75.884224092169148
 Total times  cpu:       43.5s     wall:       59.5s
