============================== echo of input deck ==============================
 echo
 start H2O
 title "H2O"

 memory total 24 gb

 geometry units bohr
 symmetry c1
        O  0.00000000  0.00000000  0.00000000
        H  0.00000000  1.77892925  0.00000000
        H  1.72558000 -0.64860000  0.00000000
 end

 basis spherical
   * library cc-pVTZ
 end

 mcscf
   active  8
   actelec 10
   multiplicity 1
   maxiter 40
   vectors input h2o.mos
   vectors output h2o.mos
 end

 task mcscf

 scf
   vectors input h2o.mos
   vectors output h2o-trash.mos
   noscf
 end

 tce
   2eorb
   2emet 13
   ccsd
 end

 set tce:print_integrals T
 set tce:qorb 8
 set tce:qela 5
 set tce:qelb 5

# set tce:qducc T
# set tce:nactv 3
# set tce:nonhf T
# set tce:ducc_model 3

 set tce:printtol 0.02

 task tce
================================================================================

 Output coordinates in a.u. (scale by  1.000000000 to convert to a.u.)

  No.       Tag          Charge          X              Y              Z
 ---- ---------------- ---------- -------------- -------------- --------------
    1 O                    8.0000    -0.17255800    -0.11303293     0.00000000
    2 H                    1.0000    -0.17255800     1.66589633     0.00000000
    3 H                    1.0000     1.55302200    -0.76163293     0.00000000

 Vector    1  Occ=1.999988D+00  E=-2.054149D+01  Symmetry=a

 Vector    2  Occ=1.998980D+00  E=-1.350590D+00  Symmetry=a

 Vector    3  Occ=1.982488D+00  E=-7.456552D-01  Symmetry=a

 Vector    4  Occ=1.978762D+00  E=-5.844640D-01  Symmetry=a

 Vector    5  Occ=1.977039D+00  E=-5.253429D-01  Symmetry=a

 Vector    6  Occ=2.367637D-02  E=-2.579353D-02  Symmetry=a

 Vector    7  Occ=2.186099D-02  E=-2.413051D-02  Symmetry=a

 Vector    8  Occ=1.720503D-02  E=-1.602417D-02  Symmetry=a

 Vector    9  Occ=0.000000D+00  E= 2.921713D-01  Symmetry=a

 Vector   10  Occ=0.000000D+00  E= 3.354851D-01  Symmetry=a

 Vector   11  Occ=0.000000D+00  E= 6.121496D-01  Symmetry=a

 Vector   12  Occ=0.000000D+00  E= 6.557490D-01  Symmetry=a

 Vector   13  Occ=0.000000D+00  E= 8.102497D-01  Symmetry=a

 Vector   14  Occ=0.000000D+00  E= 8.467297D-01  Symmetry=a

 Vector   15  Occ=0.000000D+00  E= 9.737644D-01  Symmetry=a

 Vector   16  Occ=0.000000D+00  E= 1.118628D+00  Symmetry=a

 Vector   17  Occ=0.000000D+00  E= 1.177529D+00  Symmetry=a

 Vector   18  Occ=0.000000D+00  E= 1.380377D+00  Symmetry=a

         Total SCF energy =    -76.054649464512

 Vector    2  Occ=2.000000D+00  E=-1.350590D+00

 Vector    3  Occ=2.000000D+00  E=-7.456552D-01

 Vector    4  Occ=2.000000D+00  E=-5.844640D-01

 Vector    5  Occ=2.000000D+00  E=-5.253429D-01

 Vector    6  Occ=0.000000D+00  E=-2.579353D-02

 Vector    7  Occ=0.000000D+00  E=-2.413051D-02

 Vector    8  Occ=0.000000D+00  E=-1.602417D-02

 Vector    9  Occ=0.000000D+00  E= 2.921713D-01

 Vector   10  Occ=0.000000D+00  E= 3.354851D-01

 Vector   11  Occ=0.000000D+00  E= 6.121496D-01

 Vector   12  Occ=0.000000D+00  E= 6.557490D-01

 Vector   13  Occ=0.000000D+00  E= 8.102497D-01

 Vector   14  Occ=0.000000D+00  E= 8.467297D-01

 Vector   15  Occ=0.000000D+00  E= 9.737644D-01

       Multipole analysis of the density wrt the origin
       ------------------------------------------------

     L   x y z        total         open         nuclear
     -   - - -        -----         ----         -------
     0   0 0 0     -0.000000      0.000000     10.000000

     1   1 0 0      0.593138      0.000000     -0.000000
     1   0 1 0      0.397127      0.000000      0.000000
     1   0 0 1      0.000000      0.000000      0.000000

     2   2 0 0     -4.078460      0.000000      2.679864
     2   1 1 0     -0.809950      0.000000     -1.314259
     2   1 0 1     -0.000001      0.000000      0.000000
     2   0 2 0     -3.541543      0.000000      3.457507
     2   0 1 1     -0.000001      0.000000      0.000000

 CCSD total energy / hartree       =       -76.147393537781241
 Total times  cpu:      138.2s     wall:      197.8s
