============================== echo of input deck ==============================
 echo
 start H2O
 title "H2O"

 memory total 24 gb

 geometry units bohr
 symmetry c1
        O  0.00000000  0.00000000  0.00000000
        H  0.00000000  2.1937055  0.00000000
        H  1.72558000 -0.64860000  0.00000000
 end

 basis spherical
   * library cc-pVTZ
 end

 mcscf
   active  8
   actelec 10
   multiplicity 1
   maxiter 40
   vectors input h2o.mos
   vectors output h2o.mos
 end

 task mcscf

 scf
   vectors input h2o.mos
   vectors output h2o-trash.mos
   noscf
 end

 tce
   2eorb
   2emet 13
   ccsd
 end

 set tce:print_integrals T
 set tce:qorb 8
 set tce:qela 5
 set tce:qelb 5

# set tce:qducc T
# set tce:nactv 3
# set tce:nonhf T
# set tce:ducc_model 3

 set tce:printtol 0.02

 task tce
================================================================================

 Output coordinates in a.u. (scale by  1.000000000 to convert to a.u.)

  No.       Tag          Charge          X              Y              Z
 ---- ---------------- ---------- -------------- -------------- --------------
    1 O                    8.0000    -0.17255800    -0.15451055     0.00000000
    2 H                    1.0000    -0.17255800     2.03919495     0.00000000
    3 H                    1.0000     1.55302200    -0.80311055     0.00000000

 Vector    1  Occ=1.999989D+00  E=-2.055781D+01  Symmetry=a

 Vector    2  Occ=1.998564D+00  E=-1.308837D+00  Symmetry=a

 Vector    3  Occ=1.980814D+00  E=-6.937653D-01  Symmetry=a

 Vector    4  Occ=1.975444D+00  E=-5.654381D-01  Symmetry=a

 Vector    5  Occ=1.961706D+00  E=-5.191208D-01  Symmetry=a

 Vector    6  Occ=3.951206D-02  E=-3.451556D-02  Symmetry=a

 Vector    7  Occ=2.528747D-02  E=-2.584296D-02  Symmetry=a

 Vector    8  Occ=1.868230D-02  E=-1.576142D-02  Symmetry=a

 Vector    9  Occ=0.000000D+00  E= 3.092364D-01  Symmetry=a

 Vector   10  Occ=0.000000D+00  E= 3.357483D-01  Symmetry=a

 Vector   11  Occ=0.000000D+00  E= 6.102670D-01  Symmetry=a

 Vector   12  Occ=0.000000D+00  E= 6.962633D-01  Symmetry=a

 Vector   13  Occ=0.000000D+00  E= 8.199428D-01  Symmetry=a

 Vector   14  Occ=0.000000D+00  E= 8.242882D-01  Symmetry=a

 Vector   15  Occ=0.000000D+00  E= 9.710695D-01  Symmetry=a

 Vector   16  Occ=0.000000D+00  E= 1.112062D+00  Symmetry=a

 Vector   17  Occ=0.000000D+00  E= 1.186696D+00  Symmetry=a

 Vector   18  Occ=0.000000D+00  E= 1.249365D+00  Symmetry=a

         Total SCF energy =    -76.018999398051

 Vector    2  Occ=2.000000D+00  E=-1.308837D+00

 Vector    3  Occ=2.000000D+00  E=-6.937653D-01

 Vector    4  Occ=2.000000D+00  E=-5.654381D-01

 Vector    5  Occ=2.000000D+00  E=-5.191208D-01

 Vector    6  Occ=0.000000D+00  E=-3.451556D-02

 Vector    7  Occ=0.000000D+00  E=-2.584296D-02

 Vector    8  Occ=0.000000D+00  E=-1.576142D-02

 Vector    9  Occ=0.000000D+00  E= 3.092364D-01

 Vector   10  Occ=0.000000D+00  E= 3.357483D-01

 Vector   11  Occ=0.000000D+00  E= 6.102670D-01

 Vector   12  Occ=0.000000D+00  E= 6.962633D-01

 Vector   13  Occ=0.000000D+00  E= 8.199428D-01

 Vector   14  Occ=0.000000D+00  E= 8.242882D-01

 Vector   15  Occ=0.000000D+00  E= 9.710695D-01

       Multipole analysis of the density wrt the origin
       ------------------------------------------------

     L   x y z        total         open         nuclear
     -   - - -        -----         ----         -------
     0   0 0 0     -0.000000      0.000000     10.000000

     1   1 0 0      0.572227      0.000000     -0.000000
     1   0 1 0      0.451417      0.000000     -0.000000
     1   0 0 1      0.000000      0.000000      0.000000

     2   2 0 0     -4.242194      0.000000      2.679864
     2   1 1 0     -0.847237      0.000000     -1.385832
     2   1 0 1      0.000000      0.000000      0.000000
     2   0 2 0     -3.208578      0.000000      4.994291
     2   0 1 1      0.000000      0.000000      0.000000

 CCSD total energy / hartree       =       -76.122421740938194
 Total times  cpu:      125.5s     wall:      176.8s
