============================== echo of input deck ==============================
 echo
 start H2O
 title "H2O"

 memory total 24 gb

 geometry units bohr
 symmetry c1
        O  0.00000000  0.00000000  0.00000000
        H  0.00000000  2.285878  0.00000000
        H  1.72558000 -0.64860000  0.00000000
 end

 basis spherical
   * library cc-pVTZ
 end

 mcscf
   active  8
   actelec 10
   multiplicity 1
   maxiter 40
   vectors input h2o.mos
   vectors output h2o.mos
 end

 task mcscf

 scf
   vectors input h2o.mos
   vectors output h2o-trash.mos
   noscf
 end

 tce
   2eorb
   2emet 13
   ccsd
 end

 set tce:print_integrals T
 set tce:qorb 8
 set tce:qela 5
 set tce:qelb 5

# set tce:qducc T
# set tce:nactv 3
# set tce:nonhf T
# set tce:ducc_model 3

 set tce:printtol 0.02

 task tce
================================================================================

 Output coordinates in a.u. (scale by  1.000000000 to convert to a.u.)

  No.       Tag          Charge          X              Y              Z
 ---- ---------------- ---------- -------------- -------------- --------------
    1 O                    8.0000    -0.17255800    -0.16372780     0.00000000
    2 H                    1.0000    -0.17255800     2.12215020     0.00000000
    3 H                    1.0000     1.55302200    -0.81232780     0.00000000

 Vector    1  Occ=1.999990D+00  E=-2.056103D+01  Symmetry=a

 Vector    2  Occ=1.998461D+00  E=-1.303463D+00  Symmetry=a

 Vector    3  Occ=1.980573D+00  E=-6.852058D-01  Symmetry=a

 Vector    4  Occ=1.975120D+00  E=-5.602889D-01  Symmetry=a

 Vector    5  Occ=1.955917D+00  E=-5.186506D-01  Symmetry=a

 Vector    6  Occ=4.544152D-02  E=-3.729320D-02  Symmetry=a

 Vector    7  Occ=2.561887D-02  E=-2.591111D-02  Symmetry=a

 Vector    8  Occ=1.887939D-02  E=-1.563954D-02  Symmetry=a

 Vector    9  Occ=0.000000D+00  E= 3.116679D-01  Symmetry=a

 Vector   10  Occ=0.000000D+00  E= 3.362425D-01  Symmetry=a

 Vector   11  Occ=0.000000D+00  E= 6.091891D-01  Symmetry=a

 Vector   12  Occ=0.000000D+00  E= 7.082167D-01  Symmetry=a

 Vector   13  Occ=0.000000D+00  E= 8.193155D-01  Symmetry=a

 Vector   14  Occ=0.000000D+00  E= 8.237843D-01  Symmetry=a

 Vector   15  Occ=0.000000D+00  E= 9.699245D-01  Symmetry=a

 Vector   16  Occ=0.000000D+00  E= 1.098826D+00  Symmetry=a

 Vector   17  Occ=0.000000D+00  E= 1.171744D+00  Symmetry=a

 Vector   18  Occ=0.000000D+00  E= 1.248051D+00  Symmetry=a

         Total SCF energy =    -76.006211677564

 Vector    2  Occ=2.000000D+00  E=-1.303463D+00

 Vector    3  Occ=2.000000D+00  E=-6.852058D-01

 Vector    4  Occ=2.000000D+00  E=-5.602889D-01

 Vector    5  Occ=2.000000D+00  E=-5.186506D-01

 Vector    6  Occ=0.000000D+00  E=-3.729320D-02

 Vector    7  Occ=0.000000D+00  E=-2.591111D-02

 Vector    8  Occ=0.000000D+00  E=-1.563954D-02

 Vector    9  Occ=0.000000D+00  E= 3.116679D-01

 Vector   10  Occ=0.000000D+00  E= 3.362425D-01

 Vector   11  Occ=0.000000D+00  E= 6.091891D-01

 Vector   12  Occ=0.000000D+00  E= 7.082167D-01

 Vector   13  Occ=0.000000D+00  E= 8.193155D-01

 Vector   14  Occ=0.000000D+00  E= 8.237843D-01

 Vector   15  Occ=0.000000D+00  E= 9.699245D-01

       Multipole analysis of the density wrt the origin
       ------------------------------------------------

     L   x y z        total         open         nuclear
     -   - - -        -----         ----         -------
     0   0 0 0     -0.000000      0.000000     10.000000

     1   1 0 0      0.568819      0.000000     -0.000000
     1   0 1 0      0.456408      0.000000     -0.000000
     1   0 0 1      0.000000      0.000000      0.000000

     2   2 0 0     -4.273813      0.000000      2.679864
     2   1 1 0     -0.853252      0.000000     -1.401737
     2   1 0 1     -0.000000      0.000000      0.000000
     2   0 2 0     -3.136003      0.000000      5.377852
     2   0 1 1     -0.000000      0.000000      0.000000

 CCSD total energy / hartree       =       -76.112219439823875
 Total times  cpu:      126.3s     wall:      176.6s
