============================== echo of input deck ==============================
 echo
 start H2O
 title "H2O"

 memory total 24 gb

 geometry units bohr
 symmetry c1
        O  0.00000000  0.00000000  0.00000000
        H  0.00000000  2.3411815  0.00000000
        H  1.72558000 -0.64860000  0.00000000
 end

 basis spherical
   * library cc-pVTZ
 end

 mcscf
   active  8
   actelec 10
   multiplicity 1
   maxiter 40
   vectors input h2o.mos
   vectors output h2o.mos
 end

 task mcscf

 scf
   vectors input h2o.mos
   vectors output h2o-trash.mos
   noscf
 end

 tce
   2eorb
   2emet 13
   ccsd
 end

 set tce:print_integrals T
 set tce:qorb 8
 set tce:qela 5
 set tce:qelb 5

# set tce:qducc T
# set tce:nactv 3
# set tce:nonhf T
# set tce:ducc_model 3

 set tce:printtol 0.02

 task tce
================================================================================

 Output coordinates in a.u. (scale by  1.000000000 to convert to a.u.)

  No.       Tag          Charge          X              Y              Z
 ---- ---------------- ---------- -------------- -------------- --------------
    1 O                    8.0000    -0.17255800    -0.16925815     0.00000000
    2 H                    1.0000    -0.17255800     2.17192335     0.00000000
    3 H                    1.0000     1.55302200    -0.81785815     0.00000000

 Vector    1  Occ=1.999990D+00  E=-2.056297D+01  Symmetry=a

 Vector    2  Occ=1.998400D+00  E=-1.300800D+00  Symmetry=a

 Vector    3  Occ=1.980458D+00  E=-6.806816D-01  Symmetry=a

 Vector    4  Occ=1.974938D+00  E=-5.569858D-01  Symmetry=a

 Vector    5  Occ=1.951928D+00  E=-5.185611D-01  Symmetry=a

 Vector    6  Occ=4.951280D-02  E=-3.910886D-02  Symmetry=a

 Vector    7  Occ=2.580534D-02  E=-2.594994D-02  Symmetry=a

 Vector    8  Occ=1.896788D-02  E=-1.555584D-02  Symmetry=a

 Vector    9  Occ=0.000000D+00  E= 3.129574D-01  Symmetry=a

 Vector   10  Occ=0.000000D+00  E= 3.367315D-01  Symmetry=a

 Vector   11  Occ=0.000000D+00  E= 6.085804D-01  Symmetry=a

 Vector   12  Occ=0.000000D+00  E= 7.154198D-01  Symmetry=a

 Vector   13  Occ=0.000000D+00  E= 8.163492D-01  Symmetry=a

 Vector   14  Occ=0.000000D+00  E= 8.263259D-01  Symmetry=a

 Vector   15  Occ=0.000000D+00  E= 9.691113D-01  Symmetry=a

 Vector   16  Occ=0.000000D+00  E= 1.091060D+00  Symmetry=a

 Vector   17  Occ=0.000000D+00  E= 1.158217D+00  Symmetry=a

 Vector   18  Occ=0.000000D+00  E= 1.252335D+00  Symmetry=a

         Total SCF energy =    -75.998229943007

 Vector    2  Occ=2.000000D+00  E=-1.300800D+00

 Vector    3  Occ=2.000000D+00  E=-6.806816D-01

 Vector    4  Occ=2.000000D+00  E=-5.569858D-01

 Vector    5  Occ=2.000000D+00  E=-5.185611D-01

 Vector    6  Occ=0.000000D+00  E=-3.910886D-02

 Vector    7  Occ=0.000000D+00  E=-2.594994D-02

 Vector    8  Occ=0.000000D+00  E=-1.555584D-02

 Vector    9  Occ=0.000000D+00  E= 3.129574D-01

 Vector   10  Occ=0.000000D+00  E= 3.367315D-01

 Vector   11  Occ=0.000000D+00  E= 6.085804D-01

 Vector   12  Occ=0.000000D+00  E= 7.154198D-01

 Vector   13  Occ=0.000000D+00  E= 8.163492D-01

 Vector   14  Occ=0.000000D+00  E= 8.263259D-01

 Vector   15  Occ=0.000000D+00  E= 9.691113D-01

       Multipole analysis of the density wrt the origin
       ------------------------------------------------

     L   x y z        total         open         nuclear
     -   - - -        -----         ----         -------
     0   0 0 0     -0.000000      0.000000     10.000000

     1   1 0 0      0.566980      0.000000     -0.000000
     1   0 1 0      0.457731      0.000000      0.000000
     1   0 0 1      0.000000      0.000000      0.000000

     2   2 0 0     -4.291844      0.000000      2.679864
     2   1 1 0     -0.856310      0.000000     -1.411280
     2   1 0 1     -0.000000      0.000000      0.000000
     2   0 2 0     -3.094448      0.000000      5.615330
     2   0 1 1     -0.000000      0.000000      0.000000

 CCSD total energy / hartree       =       -76.105843700123671
 Total times  cpu:      125.5s     wall:      176.2s
