============================== echo of input deck ==============================
 echo
 start H2O
 title "H2O"

 memory total 24 gb

 geometry units bohr
 symmetry c1
        O  0.00000000  0.00000000  0.00000000
        H  0.00000000  2.470223  0.00000000
        H  1.72558000 -0.64860000  0.00000000
 end

 basis spherical
   * library cc-pVTZ
 end

 mcscf
   active  8
   actelec 10
   multiplicity 1
   maxiter 40
   vectors input h2o.mos
   vectors output h2o.mos
 end

 task mcscf

 scf
   vectors input h2o.mos
   vectors output h2o-trash.mos
   noscf
 end

 tce
   2eorb
   2emet 13
   ccsd
 end

 set tce:print_integrals T
 set tce:qorb 8
 set tce:qela 5
 set tce:qelb 5

# set tce:qducc T
# set tce:nactv 3
# set tce:nonhf T
# set tce:ducc_model 3

 set tce:printtol 0.02

 task tce
================================================================================

 Output coordinates in a.u. (scale by  1.000000000 to convert to a.u.)

  No.       Tag          Charge          X              Y              Z
 ---- ---------------- ---------- -------------- -------------- --------------
    1 O                    8.0000    -0.17255800    -0.18216230     0.00000000
    2 H                    1.0000    -0.17255800     2.28806070     0.00000000
    3 H                    1.0000     1.55302200    -0.83076230     0.00000000

 Vector    1  Occ=1.999990D+00  E=-2.056752D+01  Symmetry=a

 Vector    2  Occ=1.998264D+00  E=-1.296024D+00  Symmetry=a

 Vector    3  Occ=1.980291D+00  E=-6.719115D-01  Symmetry=a

 Vector    4  Occ=1.974557D+00  E=-5.485874D-01  Symmetry=a

 Vector    5  Occ=1.940782D+00  E=-5.188759D-01  Symmetry=a

 Vector    6  Occ=6.083807D-02  E=-4.381894D-02  Symmetry=a

 Vector    7  Occ=2.619747D-02  E=-2.603330D-02  Symmetry=a

 Vector    8  Occ=1.908089D-02  E=-1.533691D-02  Symmetry=a

 Vector    9  Occ=0.000000D+00  E= 3.152117D-01  Symmetry=a

 Vector   10  Occ=0.000000D+00  E= 3.384531D-01  Symmetry=a

 Vector   11  Occ=0.000000D+00  E= 6.073721D-01  Symmetry=a

 Vector   12  Occ=0.000000D+00  E= 7.316334D-01  Symmetry=a

 Vector   13  Occ=0.000000D+00  E= 8.095315D-01  Symmetry=a

 Vector   14  Occ=0.000000D+00  E= 8.328011D-01  Symmetry=a

 Vector   15  Occ=0.000000D+00  E= 9.668488D-01  Symmetry=a

 Vector   16  Occ=0.000000D+00  E= 1.073512D+00  Symmetry=a

 Vector   17  Occ=0.000000D+00  E= 1.124127D+00  Symmetry=a

 Vector   18  Occ=0.000000D+00  E= 1.265672D+00  Symmetry=a

         Total SCF energy =    -75.979122266527

 Vector    2  Occ=2.000000D+00  E=-1.296024D+00

 Vector    3  Occ=2.000000D+00  E=-6.719115D-01

 Vector    4  Occ=2.000000D+00  E=-5.485874D-01

 Vector    5  Occ=2.000000D+00  E=-5.188759D-01

 Vector    6  Occ=0.000000D+00  E=-4.381894D-02

 Vector    7  Occ=0.000000D+00  E=-2.603330D-02

 Vector    8  Occ=0.000000D+00  E=-1.533691D-02

 Vector    9  Occ=0.000000D+00  E= 3.152117D-01

 Vector   10  Occ=0.000000D+00  E= 3.384531D-01

 Vector   11  Occ=0.000000D+00  E= 6.073721D-01

 Vector   12  Occ=0.000000D+00  E= 7.316334D-01

 Vector   13  Occ=0.000000D+00  E= 8.095315D-01

 Vector   14  Occ=0.000000D+00  E= 8.328011D-01

 Vector   15  Occ=0.000000D+00  E= 9.668488D-01

       Multipole analysis of the density wrt the origin
       ------------------------------------------------

     L   x y z        total         open         nuclear
     -   - - -        -----         ----         -------
     0   0 0 0     -0.000000      0.000000     10.000000

     1   1 0 0      0.563346      0.000000     -0.000000
     1   0 1 0      0.455477      0.000000      0.000000
     1   0 0 1      0.000000      0.000000      0.000000

     2   2 0 0     -4.331085      0.000000      2.679864
     2   1 1 0     -0.861554      0.000000     -1.433547
     2   1 0 1     -0.000000      0.000000      0.000000
     2   0 2 0     -3.005870      0.000000      6.190853
     2   0 1 1     -0.000000      0.000000      0.000000

 CCSD total energy / hartree       =       -76.090686409255227
 Total times  cpu:      126.7s     wall:      177.2s
