============================== echo of input deck ==============================
 echo
 start H2O
 title "H2O"

 memory total 24 gb

 geometry units bohr
 symmetry c1
        O  0.00000000  0.00000000  0.00000000
        H  0.00000000  2.691437  0.00000000
        H  1.72558000 -0.64860000  0.00000000
 end

 basis spherical
   * library cc-pVTZ
 end

 mcscf
   active  8
   actelec 10
   multiplicity 1
   maxiter 40
   vectors input h2o.mos
   vectors output h2o.mos
 end

 task mcscf

 scf
   vectors input h2o.mos
   vectors output h2o-trash.mos
   noscf
 end

 tce
   2eorb
   2emet 13
   ccsd
   maxiter 300
 end

 set tce:print_integrals T
 set tce:qorb 8
 set tce:qela 5
 set tce:qelb 5

# set tce:qducc T
# set tce:nactv 3
# set tce:nonhf T
# set tce:ducc_model 6

 set tce:printtol 0.02

 task tce
================================================================================

 Output coordinates in a.u. (scale by  1.000000000 to convert to a.u.)

  No.       Tag          Charge          X              Y              Z
 ---- ---------------- ---------- -------------- -------------- --------------
    1 O                    8.0000    -0.17255800    -0.20428370     0.00000000
    2 H                    1.0000    -0.17255800     2.48715330     0.00000000
    3 H                    1.0000     1.55302200    -0.85288370     0.00000000

 Vector    1  Occ=1.999990D+00  E=-2.057566D+01  Symmetry=a

 Vector    2  Occ=1.998084D+00  E=-1.291896D+00  Symmetry=a

 Vector    3  Occ=1.980351D+00  E=-6.625424D-01  Symmetry=a

 Vector    4  Occ=1.974076D+00  E=-5.318734D-01  Symmetry=a

 Vector    5  Occ=1.913899D+00  E=-5.211482D-01  Symmetry=a

 Vector    6  Occ=8.793856D-02  E=-5.383196D-02  Symmetry=a

 Vector    7  Occ=2.670280D-02  E=-2.614932D-02  Symmetry=a

 Vector    8  Occ=1.895903D-02  E=-1.491142D-02  Symmetry=a

 Vector    9  Occ=0.000000D+00  E= 3.163128D-01  Symmetry=a

 Vector   10  Occ=0.000000D+00  E= 3.436229D-01  Symmetry=a

 Vector   11  Occ=0.000000D+00  E= 6.062930D-01  Symmetry=a

 Vector   12  Occ=0.000000D+00  E= 7.560390D-01  Symmetry=a

 Vector   13  Occ=0.000000D+00  E= 7.983502D-01  Symmetry=a

 Vector   14  Occ=0.000000D+00  E= 8.449138D-01  Symmetry=a

 Vector   15  Occ=0.000000D+00  E= 9.617926D-01  Symmetry=a

 Vector   16  Occ=0.000000D+00  E= 1.045457D+00  Symmetry=a

 Vector   17  Occ=0.000000D+00  E= 1.068091D+00  Symmetry=a

 Vector   18  Occ=0.000000D+00  E= 1.287262D+00  Symmetry=a

         Total SCF energy =    -75.946103408668

 Vector    2  Occ=2.000000D+00  E=-1.291896D+00

 Vector    3  Occ=2.000000D+00  E=-6.625424D-01

 Vector    4  Occ=2.000000D+00  E=-5.318734D-01

 Vector    5  Occ=2.000000D+00  E=-5.211482D-01

 Vector    6  Occ=0.000000D+00  E=-5.383196D-02

 Vector    7  Occ=0.000000D+00  E=-2.614932D-02

 Vector    8  Occ=0.000000D+00  E=-1.491142D-02

 Vector    9  Occ=0.000000D+00  E= 3.163128D-01

 Vector   10  Occ=0.000000D+00  E= 3.436229D-01

 Vector   11  Occ=0.000000D+00  E= 6.062930D-01

 Vector   12  Occ=0.000000D+00  E= 7.560390D-01

 Vector   13  Occ=0.000000D+00  E= 7.983502D-01

 Vector   14  Occ=0.000000D+00  E= 8.449138D-01

 Vector   15  Occ=0.000000D+00  E= 9.617926D-01

       Multipole analysis of the density wrt the origin
       ------------------------------------------------

     L   x y z        total         open         nuclear
     -   - - -        -----         ----         -------
     0   0 0 0     -0.000000      0.000000     10.000000

     1   1 0 0      0.559317      0.000000     -0.000000
     1   0 1 0      0.432847      0.000000      0.000000
     1   0 0 1      0.000000      0.000000      0.000000

     2   2 0 0     -4.388778      0.000000      2.679864
     2   1 1 0     -0.863429      0.000000     -1.471719
     2   1 0 1     -0.000000      0.000000      0.000000
     2   0 2 0     -2.892701      0.000000      7.247197
     2   0 1 1     -0.000000      0.000000      0.000000

 CCSD total energy / hartree       =       -76.065335108142420
 Total times  cpu:       53.1s     wall:       78.3s
