============================== echo of input deck ==============================
 echo
 start H2O
 title "H2O"

 memory total 24 gb

 geometry units bohr
 symmetry c1
        O  0.00000000  0.00000000  0.00000000
        H  0.00000000  3.0048235  0.00000000
        H  1.72558000 -0.64860000  0.00000000
 end

 basis spherical
   * library cc-pVTZ
 end

 mcscf
   active  8
   actelec 10
   multiplicity 1
   maxiter 40
   vectors input h2o.mos
   vectors output h2o.mos
 end

 task mcscf

 scf
   vectors input h2o.mos
   vectors output h2o-trash.mos
   noscf
 end

 tce
   2eorb
   2emet 13
   ccsd
   maxiter 300
 end

 set tce:print_integrals T
 set tce:qorb 8
 set tce:qela 5
 set tce:qelb 5

# set tce:qducc T
# set tce:nactv 3
# set tce:nonhf T
# set tce:ducc_model 6

 set tce:printtol 0.02

 task tce
================================================================================

 Output coordinates in a.u. (scale by  1.000000000 to convert to a.u.)

  No.       Tag          Charge          X              Y              Z
 ---- ---------------- ---------- -------------- -------------- --------------
    1 O                    8.0000    -0.17255800    -0.23562235     0.00000000
    2 H                    1.0000    -0.17255800     2.76920115     0.00000000
    3 H                    1.0000     1.55302200    -0.88422235     0.00000000

 Vector    1  Occ=1.999991D+00  E=-2.058743D+01  Symmetry=a

 Vector    2  Occ=1.998014D+00  E=-1.292377D+00  Symmetry=a

 Vector    3  Occ=1.981111D+00  E=-6.591011D-01  Symmetry=a

 Vector    4  Occ=1.973800D+00  E=-5.273288D-01  Symmetry=a

 Vector    5  Occ=1.853294D+00  E=-5.037249D-01  Symmetry=a

 Vector    6  Occ=1.485467D-01  E=-7.324057D-02  Symmetry=a

 Vector    7  Occ=2.703329D-02  E=-2.625502D-02  Symmetry=a

 Vector    8  Occ=1.821062D-02  E=-1.430745D-02  Symmetry=a

 Vector    9  Occ=0.000000D+00  E= 3.127522D-01  Symmetry=a

 Vector   10  Occ=0.000000D+00  E= 3.546237D-01  Symmetry=a

 Vector   11  Occ=0.000000D+00  E= 6.069003D-01  Symmetry=a

 Vector   12  Occ=0.000000D+00  E= 7.800286D-01  Symmetry=a

 Vector   13  Occ=0.000000D+00  E= 7.848553D-01  Symmetry=a

 Vector   14  Occ=0.000000D+00  E= 8.612541D-01  Symmetry=a

 Vector   15  Occ=0.000000D+00  E= 9.525618D-01  Symmetry=a

 Vector   16  Occ=0.000000D+00  E= 9.959817D-01  Symmetry=a

 Vector   17  Occ=0.000000D+00  E= 1.011074D+00  Symmetry=a

 Vector   18  Occ=0.000000D+00  E= 1.309286D+00  Symmetry=a

         Total SCF energy =    -75.901223775294

 Vector    2  Occ=2.000000D+00  E=-1.292377D+00

 Vector    3  Occ=2.000000D+00  E=-6.591011D-01

 Vector    4  Occ=2.000000D+00  E=-5.273288D-01

 Vector    5  Occ=2.000000D+00  E=-5.037249D-01

 Vector    6  Occ=0.000000D+00  E=-7.324057D-02

 Vector    7  Occ=0.000000D+00  E=-2.625502D-02

 Vector    8  Occ=0.000000D+00  E=-1.430745D-02

 Vector    9  Occ=0.000000D+00  E= 3.127522D-01

 Vector   10  Occ=0.000000D+00  E= 3.546237D-01

 Vector   11  Occ=0.000000D+00  E= 6.069003D-01

 Vector   12  Occ=0.000000D+00  E= 7.800286D-01

 Vector   13  Occ=0.000000D+00  E= 7.848553D-01

 Vector   14  Occ=0.000000D+00  E= 8.612541D-01

 Vector   15  Occ=0.000000D+00  E= 9.525618D-01

       Multipole analysis of the density wrt the origin
       ------------------------------------------------

     L   x y z        total         open         nuclear
     -   - - -        -----         ----         -------
     0   0 0 0     -0.000000      0.000000     10.000000

     1   1 0 0      0.558248      0.000000     -0.000000
     1   0 1 0      0.362368      0.000000     -0.000000
     1   0 0 1      0.000000      0.000000      0.000000

     2   2 0 0     -4.449358      0.000000      2.679864
     2   1 1 0     -0.849144      0.000000     -1.525796
     2   1 0 1     -0.000000      0.000000      0.000000
     2   0 2 0     -2.840641      0.000000      8.894467
     2   0 1 1     -0.000000      0.000000      0.000000

 CCSD total energy / hartree       =       -76.034020551535747
 Total times  cpu:       66.8s     wall:       98.8s
