============================== echo of input deck ==============================
 echo
 start H2O
 title "H2O"

 memory total 24 gb

 geometry units bohr
 symmetry c1
        O  0.00000000  0.00000000  0.00000000
        H  0.00000000  3.023258  0.00000000
        H  1.72558000 -0.64860000  0.00000000
 end

 basis spherical
   * library cc-pVTZ
 end

 mcscf
   active  8
   actelec 10
   multiplicity 1
   maxiter 40
   vectors input h2o.mos
   vectors output h2o.mos
 end

 task mcscf

 scf
   vectors input h2o.mos
   vectors output h2o-trash.mos
   noscf
 end

 tce
   2eorb
   2emet 13
   ccsd
   maxiter 300
 end

 set tce:print_integrals T
 set tce:qorb 8
 set tce:qela 5
 set tce:qelb 5

# set tce:qducc T
# set tce:nactv 3
# set tce:nonhf T
# set tce:ducc_model 6

 set tce:printtol 0.02

 task tce
================================================================================

 Output coordinates in a.u. (scale by  1.000000000 to convert to a.u.)

  No.       Tag          Charge          X              Y              Z
 ---- ---------------- ---------- -------------- -------------- --------------
    1 O                    8.0000    -0.17255800    -0.23746580     0.00000000
    2 H                    1.0000    -0.17255800     2.78579220     0.00000000
    3 H                    1.0000     1.55302200    -0.88606580     0.00000000

 Vector    1  Occ=1.999991D+00  E=-2.058810D+01  Symmetry=a

 Vector    2  Occ=1.998017D+00  E=-1.292560D+00  Symmetry=a

 Vector    3  Occ=1.981173D+00  E=-6.591551D-01  Symmetry=a

 Vector    4  Occ=1.973797D+00  E=-5.277616D-01  Symmetry=a

 Vector    5  Occ=1.848806D+00  E=-5.019457D-01  Symmetry=a

 Vector    6  Occ=1.530238D-01  E=-7.458244D-02  Symmetry=a

 Vector    7  Occ=2.704018D-02  E=-2.625914D-02  Symmetry=a

 Vector    8  Occ=1.815270D-02  E=-1.427452D-02  Symmetry=a

 Vector    9  Occ=0.000000D+00  E= 3.124162D-01  Symmetry=a

 Vector   10  Occ=0.000000D+00  E= 3.553421D-01  Symmetry=a

 Vector   11  Occ=0.000000D+00  E= 6.069922D-01  Symmetry=a

 Vector   12  Occ=0.000000D+00  E= 7.810427D-01  Symmetry=a

 Vector   13  Occ=0.000000D+00  E= 7.841893D-01  Symmetry=a

 Vector   14  Occ=0.000000D+00  E= 8.620803D-01  Symmetry=a

 Vector   15  Occ=0.000000D+00  E= 9.519625D-01  Symmetry=a

 Vector   16  Occ=0.000000D+00  E= 9.919631D-01  Symmetry=a

 Vector   17  Occ=0.000000D+00  E= 1.009253D+00  Symmetry=a

 Vector   18  Occ=0.000000D+00  E= 1.310280D+00  Symmetry=a

         Total SCF energy =    -75.898690583483

 Vector    2  Occ=2.000000D+00  E=-1.292560D+00

 Vector    3  Occ=2.000000D+00  E=-6.591551D-01

 Vector    4  Occ=2.000000D+00  E=-5.277616D-01

 Vector    5  Occ=2.000000D+00  E=-5.019457D-01

 Vector    6  Occ=0.000000D+00  E=-7.458244D-02

 Vector    7  Occ=0.000000D+00  E=-2.625914D-02

 Vector    8  Occ=0.000000D+00  E=-1.427452D-02

 Vector    9  Occ=0.000000D+00  E= 3.124162D-01

 Vector   10  Occ=0.000000D+00  E= 3.553421D-01

 Vector   11  Occ=0.000000D+00  E= 6.069922D-01

 Vector   12  Occ=0.000000D+00  E= 7.810427D-01

 Vector   13  Occ=0.000000D+00  E= 7.841893D-01

 Vector   14  Occ=0.000000D+00  E= 8.620803D-01

 Vector   15  Occ=0.000000D+00  E= 9.519625D-01

       Multipole analysis of the density wrt the origin
       ------------------------------------------------

     L   x y z        total         open         nuclear
     -   - - -        -----         ----         -------
     0   0 0 0     -0.000000      0.000000     10.000000

     1   1 0 0      0.558339      0.000000     -0.000000
     1   0 1 0      0.357123      0.000000     -0.000000
     1   0 0 1      0.000000      0.000000      0.000000

     2   2 0 0     -4.452174      0.000000      2.679864
     2   1 1 0     -0.847713      0.000000     -1.528977
     2   1 0 1     -0.000000      0.000000      0.000000
     2   0 2 0     -2.841607      0.000000      8.996871
     2   0 1 1     -0.000000      0.000000      0.000000

 CCSD total energy / hartree       =       -76.032398892598550
 Total times  cpu:       64.5s     wall:       94.8s
