============================== echo of input deck ==============================
 echo
 start H2O
 title "H2O"

 memory total 24 gb

 geometry units bohr
 symmetry c1
        O  0.00000000  0.00000000  0.00000000
        H  0.00000000  3.244472  0.00000000
        H  1.72558000 -0.64860000  0.00000000
 end

 basis spherical
   * library cc-pVTZ
 end

 mcscf
   active  8
   actelec 10
   multiplicity 1
   maxiter 40
   vectors input h2o.mos
   vectors output h2o.mos
 end

 task mcscf

 scf
   vectors input h2o.mos
   vectors output h2o-trash.mos
   noscf
 end

 tce
   2eorb
   2emet 13
   ccsd
   maxiter 300
 end

 set tce:print_integrals T
 set tce:qorb 8
 set tce:qela 5
 set tce:qelb 5

# set tce:qducc T
# set tce:nactv 3
# set tce:nonhf T
# set tce:ducc_model 6

 set tce:printtol 0.02

 task tce
================================================================================

 Output coordinates in a.u. (scale by  1.000000000 to convert to a.u.)

  No.       Tag          Charge          X              Y              Z
 ---- ---------------- ---------- -------------- -------------- --------------
    1 O                    8.0000    -0.17255800    -0.25958720     0.00000000
    2 H                    1.0000    -0.17255800     2.98488480     0.00000000
    3 H                    1.0000     1.55302200    -0.90818720     0.00000000

 Vector    1  Occ=1.999991D+00  E=-2.059555D+01  Symmetry=a

 Vector    2  Occ=1.998097D+00  E=-1.295424D+00  Symmetry=a

 Vector    3  Occ=1.981988D+00  E=-6.610158D-01  Symmetry=a

 Vector    4  Occ=1.973845D+00  E=-5.330677D-01  Symmetry=a

 Vector    5  Occ=1.787202D+00  E=-4.800815D-01  Symmetry=a

 Vector    6  Occ=2.144220D-01  E=-9.212319D-02  Symmetry=a

 Vector    7  Occ=2.704300D-02  E=-2.629218D-02  Symmetry=a

 Vector    8  Occ=1.741128D-02  E=-1.391945D-02  Symmetry=a

 Vector    9  Occ=0.000000D+00  E= 3.079508D-01  Symmetry=a

 Vector   10  Occ=0.000000D+00  E= 3.640637D-01  Symmetry=a

 Vector   11  Occ=0.000000D+00  E= 6.083055D-01  Symmetry=a

 Vector   12  Occ=0.000000D+00  E= 7.776345D-01  Symmetry=a

 Vector   13  Occ=0.000000D+00  E= 7.901202D-01  Symmetry=a

 Vector   14  Occ=0.000000D+00  E= 8.696899D-01  Symmetry=a

 Vector   15  Occ=0.000000D+00  E= 9.444459D-01  Symmetry=a

 Vector   16  Occ=0.000000D+00  E= 9.453442D-01  Symmetry=a

 Vector   17  Occ=0.000000D+00  E= 9.898336D-01  Symmetry=a

 Vector   18  Occ=0.000000D+00  E= 1.319805D+00  Symmetry=a

         Total SCF energy =    -75.869357898417

 Vector    2  Occ=2.000000D+00  E=-1.295424D+00

 Vector    3  Occ=2.000000D+00  E=-6.610158D-01

 Vector    4  Occ=2.000000D+00  E=-5.330677D-01

 Vector    5  Occ=2.000000D+00  E=-4.800815D-01

 Vector    6  Occ=0.000000D+00  E=-9.212319D-02

 Vector    7  Occ=0.000000D+00  E=-2.629218D-02

 Vector    8  Occ=0.000000D+00  E=-1.391945D-02

 Vector    9  Occ=0.000000D+00  E= 3.079508D-01

 Vector   10  Occ=0.000000D+00  E= 3.640637D-01

 Vector   11  Occ=0.000000D+00  E= 6.083055D-01

 Vector   12  Occ=0.000000D+00  E= 7.776345D-01

 Vector   13  Occ=0.000000D+00  E= 7.901202D-01

 Vector   14  Occ=0.000000D+00  E= 8.696899D-01

 Vector   15  Occ=0.000000D+00  E= 9.444459D-01

       Multipole analysis of the density wrt the origin
       ------------------------------------------------

     L   x y z        total         open         nuclear
     -   - - -        -----         ----         -------
     0   0 0 0     -0.000000      0.000000     10.000000

     1   1 0 0      0.560523      0.000000     -0.000000
     1   0 1 0      0.288629      0.000000     -0.000000
     1   0 0 1      0.000000      0.000000      0.000000

     2   2 0 0     -4.479838      0.000000      2.679864
     2   1 1 0     -0.826322      0.000000     -1.567150
     2   1 0 1     -0.000000      0.000000      0.000000
     2   0 2 0     -2.883061      0.000000     10.273425
     2   0 1 1     -0.000000      0.000000      0.000000

 CCSD total energy / hartree       =       -76.014994790444604
 Total times  cpu:       72.3s     wall:      106.7s
