============================== echo of input deck ==============================
 echo
 start H2O
 title "H2O"

 memory total 24 gb

 geometry units bohr
 symmetry c1
        O  0.00000000  0.00000000  0.00000000
        H  0.00000000  3.281341  0.00000000
        H  1.72558000 -0.64860000  0.00000000
 end

 basis spherical
   * library cc-pVTZ
 end

 mcscf
   active  8
   actelec 10
   multiplicity 1
   maxiter 40
   vectors input h2o.mos
   vectors output h2o.mos
 end

 task mcscf

 scf
   vectors input h2o.mos
   vectors output h2o-trash.mos
   noscf
 end

 tce
   2eorb
   2emet 13
   ccsd
   maxiter 300
 end

 set tce:print_integrals T
 set tce:qorb 8
 set tce:qela 5
 set tce:qelb 5

# set tce:qducc T
# set tce:nactv 3
# set tce:nonhf T
# set tce:ducc_model 6

 set tce:printtol 0.02

 task tce
================================================================================

 Output coordinates in a.u. (scale by  1.000000000 to convert to a.u.)

  No.       Tag          Charge          X              Y              Z
 ---- ---------------- ---------- -------------- -------------- --------------
    1 O                    8.0000    -0.17255800    -0.26327410     0.00000000
    2 H                    1.0000    -0.17255800     3.01806690     0.00000000
    3 H                    1.0000     1.55302200    -0.91187410     0.00000000

 Vector    1  Occ=1.999991D+00  E=-2.059670D+01  Symmetry=a

 Vector    2  Occ=1.998117D+00  E=-1.296010D+00  Symmetry=a

 Vector    3  Occ=1.982128D+00  E=-6.615225D-01  Symmetry=a

 Vector    4  Occ=1.973865D+00  E=-5.339856D-01  Symmetry=a

 Vector    5  Occ=1.775675D+00  E=-4.762645D-01  Symmetry=a

 Vector    6  Occ=2.259057D-01  E=-9.538702D-02  Symmetry=a

 Vector    7  Occ=2.703254D-02  E=-2.629472D-02  Symmetry=a

 Vector    8  Occ=1.728641D-02  E=-1.385993D-02  Symmetry=a

 Vector    9  Occ=0.000000D+00  E= 3.069727D-01  Symmetry=a

 Vector   10  Occ=0.000000D+00  E= 3.655838D-01  Symmetry=a

 Vector   11  Occ=0.000000D+00  E= 6.087117D-01  Symmetry=a

 Vector   12  Occ=0.000000D+00  E= 7.767337D-01  Symmetry=a

 Vector   13  Occ=0.000000D+00  E= 7.912134D-01  Symmetry=a

 Vector   14  Occ=0.000000D+00  E= 8.704507D-01  Symmetry=a

 Vector   15  Occ=0.000000D+00  E= 9.381284D-01  Symmetry=a

 Vector   16  Occ=0.000000D+00  E= 9.431588D-01  Symmetry=a

 Vector   17  Occ=0.000000D+00  E= 9.871207D-01  Symmetry=a

 Vector   18  Occ=0.000000D+00  E= 1.320902D+00  Symmetry=a

         Total SCF energy =    -75.864669163611

 Vector    2  Occ=2.000000D+00  E=-1.296010D+00

 Vector    3  Occ=2.000000D+00  E=-6.615225D-01

 Vector    4  Occ=2.000000D+00  E=-5.339856D-01

 Vector    5  Occ=2.000000D+00  E=-4.762645D-01

 Vector    6  Occ=0.000000D+00  E=-9.538702D-02

 Vector    7  Occ=0.000000D+00  E=-2.629472D-02

 Vector    8  Occ=0.000000D+00  E=-1.385993D-02

 Vector    9  Occ=0.000000D+00  E= 3.069727D-01

 Vector   10  Occ=0.000000D+00  E= 3.655838D-01

 Vector   11  Occ=0.000000D+00  E= 6.087117D-01

 Vector   12  Occ=0.000000D+00  E= 7.767337D-01

 Vector   13  Occ=0.000000D+00  E= 7.912134D-01

 Vector   14  Occ=0.000000D+00  E= 8.704507D-01

 Vector   15  Occ=0.000000D+00  E= 9.381284D-01

       Multipole analysis of the density wrt the origin
       ------------------------------------------------

     L   x y z        total         open         nuclear
     -   - - -        -----         ----         -------
     0   0 0 0     -0.000000      0.000000     10.000000

     1   1 0 0      0.561057      0.000000     -0.000000
     1   0 1 0      0.276658      0.000000     -0.000000
     1   0 0 1      0.000000      0.000000      0.000000

     2   2 0 0     -4.483459      0.000000      2.679864
     2   1 1 0     -0.822124      0.000000     -1.573512
     2   1 0 1     -0.000000      0.000000      0.000000
     2   0 2 0     -2.894420      0.000000     10.494748
     2   0 1 1     -0.000000      0.000000      0.000000

 CCSD total energy / hartree       =       -76.012461073370488
 Total times  cpu:       71.3s     wall:      105.3s
