============================== echo of input deck ==============================
 echo
 start H2O
 title "H2O"

 memory total 24 gb

 geometry units bohr
 symmetry c1
        O  0.00000000  0.00000000  0.00000000
        H  0.00000000  3.3366445  0.00000000
        H  1.72558000 -0.64860000  0.00000000
 end

 basis spherical
   * library cc-pVTZ
 end

 mcscf
   active  8
   actelec 10
   multiplicity 1
   maxiter 40
   vectors input h2o.mos
   vectors output h2o.mos
 end

 task mcscf

 scf
   vectors input h2o.mos
   vectors output h2o-trash.mos
   noscf
 end

 tce
   2eorb
   2emet 13
   ccsd
   maxiter 300
 end

 set tce:print_integrals T
 set tce:qorb 8
 set tce:qela 5
 set tce:qelb 5

# set tce:qducc T
# set tce:nactv 3
# set tce:nonhf T
# set tce:ducc_model 6

 set tce:printtol 0.02

 task tce
================================================================================

 Output coordinates in a.u. (scale by  1.000000000 to convert to a.u.)

  No.       Tag          Charge          X              Y              Z
 ---- ---------------- ---------- -------------- -------------- --------------
    1 O                    8.0000    -0.17255800    -0.26880445     0.00000000
    2 H                    1.0000    -0.17255800     3.06784005     0.00000000
    3 H                    1.0000     1.55302200    -0.91740445     0.00000000

 Vector    1  Occ=1.999991D+00  E=-2.059827D+01  Symmetry=a

 Vector    2  Occ=1.998149D+00  E=-1.296825D+00  Symmetry=a

 Vector    3  Occ=1.982338D+00  E=-6.622235D-01  Symmetry=a

 Vector    4  Occ=1.973899D+00  E=-5.352448D-01  Symmetry=a

 Vector    5  Occ=1.757760D+00  E=-4.707592D-01  Symmetry=a

 Vector    6  Occ=2.437519D-01  E=-1.001656D-01  Symmetry=a

 Vector    7  Occ=2.701173D-02  E=-2.629781D-02  Symmetry=a

 Vector    8  Occ=1.709929D-02  E=-1.378825D-02  Symmetry=a

 Vector    9  Occ=0.000000D+00  E= 3.058468D-01  Symmetry=a

 Vector   10  Occ=0.000000D+00  E= 3.677123D-01  Symmetry=a

 Vector   11  Occ=0.000000D+00  E= 6.090591D-01  Symmetry=a

 Vector   12  Occ=0.000000D+00  E= 7.756661D-01  Symmetry=a

 Vector   13  Occ=0.000000D+00  E= 7.923998D-01  Symmetry=a

 Vector   14  Occ=0.000000D+00  E= 8.710733D-01  Symmetry=a

 Vector   15  Occ=0.000000D+00  E= 9.274207D-01  Symmetry=a

 Vector   16  Occ=0.000000D+00  E= 9.411907D-01  Symmetry=a

 Vector   17  Occ=0.000000D+00  E= 9.832950D-01  Symmetry=a

 Vector   18  Occ=0.000000D+00  E= 1.322359D+00  Symmetry=a

         Total SCF energy =    -75.857740995248

 Vector    2  Occ=2.000000D+00  E=-1.296825D+00

 Vector    3  Occ=2.000000D+00  E=-6.622235D-01

 Vector    4  Occ=2.000000D+00  E=-5.352448D-01

 Vector    5  Occ=2.000000D+00  E=-4.707592D-01

 Vector    6  Occ=0.000000D+00  E=-1.001656D-01

 Vector    7  Occ=0.000000D+00  E=-2.629781D-02

 Vector    8  Occ=0.000000D+00  E=-1.378825D-02

 Vector    9  Occ=0.000000D+00  E= 3.058468D-01

 Vector   10  Occ=0.000000D+00  E= 3.677123D-01

 Vector   11  Occ=0.000000D+00  E= 6.090591D-01

 Vector   12  Occ=0.000000D+00  E= 7.756661D-01

 Vector   13  Occ=0.000000D+00  E= 7.923998D-01

 Vector   14  Occ=0.000000D+00  E= 8.710733D-01

 Vector   15  Occ=0.000000D+00  E= 9.274207D-01

       Multipole analysis of the density wrt the origin
       ------------------------------------------------

     L   x y z        total         open         nuclear
     -   - - -        -----         ----         -------
     0   0 0 0     -0.000000      0.000000     10.000000

     1   1 0 0      0.561938      0.000000     -0.000000
     1   0 1 0      0.258473      0.000000      0.000000
     1   0 0 1      0.000000      0.000000      0.000000

     2   2 0 0     -4.488260      0.000000      2.679864
     2   1 1 0     -0.815542      0.000000     -1.583055
     2   1 0 1     -0.000000      0.000000      0.000000
     2   0 2 0     -2.913817      0.000000     10.831320
     2   0 1 1     -0.000000      0.000000      0.000000

 CCSD total energy / hartree       =       -76.008852286599762
 Total times  cpu:       73.6s     wall:      108.2s
