============================== echo of input deck ==============================
 echo
 start H2O
 title "H2O"

 memory total 24 gb

 geometry units bohr
 symmetry c1
        O  0.00000000  0.00000000  0.00000000
        H  0.00000000  3.355079  0.00000000
        H  1.72558000 -0.64860000  0.00000000
 end

 basis spherical
   * library cc-pVTZ
 end

 mcscf
   active  8
   actelec 10
   multiplicity 1
   maxiter 40
   vectors input h2o.mos
   vectors output h2o.mos
 end

 task mcscf

 scf
   vectors input h2o.mos
   vectors output h2o-trash.mos
   noscf
 end

 tce
   2eorb
   2emet 13
   ccsd
   maxiter 300
 end

 set tce:print_integrals T
 set tce:qorb 8
 set tce:qela 5
 set tce:qelb 5

# set tce:qducc T
# set tce:nactv 3
# set tce:nonhf T
# set tce:ducc_model 6

 set tce:printtol 0.02

 task tce
================================================================================

 Output coordinates in a.u. (scale by  1.000000000 to convert to a.u.)

  No.       Tag          Charge          X              Y              Z
 ---- ---------------- ---------- -------------- -------------- --------------
    1 O                    8.0000    -0.17255800    -0.27064790     0.00000000
    2 H                    1.0000    -0.17255800     3.08443110     0.00000000
    3 H                    1.0000     1.55302200    -0.91924790     0.00000000

 Vector    1  Occ=1.999991D+00  E=-2.059881D+01  Symmetry=a

 Vector    2  Occ=1.998160D+00  E=-1.297132D+00  Symmetry=a

 Vector    3  Occ=1.982407D+00  E=-6.625118D-01  Symmetry=a

 Vector    4  Occ=1.973911D+00  E=-5.356994D-01  Symmetry=a

 Vector    5  Occ=1.751658D+00  E=-4.688091D-01  Symmetry=a

 Vector    6  Occ=2.498304D-01  E=-1.018897D-01  Symmetry=a

 Vector    7  Occ=2.700421D-02  E=-2.629785D-02  Symmetry=a

 Vector    8  Occ=1.703852D-02  E=-1.375815D-02  Symmetry=a

 Vector    9  Occ=0.000000D+00  E= 3.052822D-01  Symmetry=a

 Vector   10  Occ=0.000000D+00  E= 3.684800D-01  Symmetry=a

 Vector   11  Occ=0.000000D+00  E= 6.093248D-01  Symmetry=a

 Vector   12  Occ=0.000000D+00  E= 7.752758D-01  Symmetry=a

 Vector   13  Occ=0.000000D+00  E= 7.927972D-01  Symmetry=a

 Vector   14  Occ=0.000000D+00  E= 8.712034D-01  Symmetry=a

 Vector   15  Occ=0.000000D+00  E= 9.240789D-01  Symmetry=a

 Vector   16  Occ=0.000000D+00  E= 9.405449D-01  Symmetry=a

 Vector   17  Occ=0.000000D+00  E= 9.821330D-01  Symmetry=a

 Vector   18  Occ=0.000000D+00  E= 1.322730D+00  Symmetry=a

         Total SCF energy =    -75.855462735024

 Vector    2  Occ=2.000000D+00  E=-1.297132D+00

 Vector    3  Occ=2.000000D+00  E=-6.625118D-01

 Vector    4  Occ=2.000000D+00  E=-5.356994D-01

 Vector    5  Occ=2.000000D+00  E=-4.688091D-01

 Vector    6  Occ=0.000000D+00  E=-1.018897D-01

 Vector    7  Occ=0.000000D+00  E=-2.629785D-02

 Vector    8  Occ=0.000000D+00  E=-1.375815D-02

 Vector    9  Occ=0.000000D+00  E= 3.052822D-01

 Vector   10  Occ=0.000000D+00  E= 3.684800D-01

 Vector   11  Occ=0.000000D+00  E= 6.093248D-01

 Vector   12  Occ=0.000000D+00  E= 7.752758D-01

 Vector   13  Occ=0.000000D+00  E= 7.927972D-01

 Vector   14  Occ=0.000000D+00  E= 8.712034D-01

 Vector   15  Occ=0.000000D+00  E= 9.240789D-01

       Multipole analysis of the density wrt the origin
       ------------------------------------------------

     L   x y z        total         open         nuclear
     -   - - -        -----         ----         -------
     0   0 0 0     -0.000000      0.000000     10.000000

     1   1 0 0      0.562245      0.000000     -0.000000
     1   0 1 0      0.252452      0.000000      0.000000
     1   0 0 1      0.000000      0.000000      0.000000

     2   2 0 0     -4.489774      0.000000      2.679864
     2   1 1 0     -0.813294      0.000000     -1.586236
     2   1 0 1     -0.000000      0.000000      0.000000
     2   0 2 0     -2.920614      0.000000     10.944734
     2   0 1 1     -0.000000      0.000000      0.000000

 CCSD total energy / hartree       =       -76.007699600313202
 Total times  cpu:       72.0s     wall:      106.2s
