============================== echo of input deck ==============================
 echo
 start H2O
 title "H2O"

 memory total 24 gb

 geometry units bohr
 symmetry c1
        O  0.00000000  0.00000000  0.00000000
        H  0.00000000  3.465686  0.00000000
        H  1.72558000 -0.64860000  0.00000000
 end

 basis spherical
   * library cc-pVTZ
 end

 mcscf
   active  8
   actelec 10
   multiplicity 1
   maxiter 40
   vectors input h2o.mos
   vectors output h2o.mos
 end

 task mcscf

 scf
   vectors input h2o.mos
   vectors output h2o-trash.mos
   noscf
 end

 tce
   2eorb
   2emet 13
   ccsd
   maxiter 300
 end

 set tce:print_integrals T
 set tce:qorb 8
 set tce:qela 5
 set tce:qelb 5

# set tce:qducc T
# set tce:nactv 3
# set tce:nonhf T
# set tce:ducc_model 6

 set tce:printtol 0.02

 task tce
================================================================================

 Output coordinates in a.u. (scale by  1.000000000 to convert to a.u.)

  No.       Tag          Charge          X              Y              Z
 ---- ---------------- ---------- -------------- -------------- --------------
    1 O                    8.0000    -0.17255800    -0.28170860     0.00000000
    2 H                    1.0000    -0.17255800     3.18397740     0.00000000
    3 H                    1.0000     1.55302200    -0.93030860     0.00000000

 Vector    1  Occ=1.999991D+00  E=-2.060163D+01  Symmetry=a

 Vector    2  Occ=1.998231D+00  E=-1.298794D+00  Symmetry=a

 Vector    3  Occ=1.982812D+00  E=-6.640575D-01  Symmetry=a

 Vector    4  Occ=1.973994D+00  E=-5.381165D-01  Symmetry=a

 Vector    5  Occ=1.713642D+00  E=-4.576805D-01  Symmetry=a

 Vector    6  Occ=2.876995D-01  E=-1.119350D-01  Symmetry=a

 Vector    7  Occ=2.694913D-02  E=-2.629766D-02  Symmetry=a

 Vector    8  Occ=1.668137D-02  E=-1.361914D-02  Symmetry=a

 Vector    9  Occ=0.000000D+00  E= 3.027372D-01  Symmetry=a

 Vector   10  Occ=0.000000D+00  E= 3.727325D-01  Symmetry=a

 Vector   11  Occ=0.000000D+00  E= 6.103340D-01  Symmetry=a

 Vector   12  Occ=0.000000D+00  E= 7.736427D-01  Symmetry=a

 Vector   13  Occ=0.000000D+00  E= 7.939522D-01  Symmetry=a

 Vector   14  Occ=0.000000D+00  E= 8.698268D-01  Symmetry=a

 Vector   15  Occ=0.000000D+00  E= 9.054368D-01  Symmetry=a

 Vector   16  Occ=0.000000D+00  E= 9.365793D-01  Symmetry=a

 Vector   17  Occ=0.000000D+00  E= 9.759932D-01  Symmetry=a

 Vector   18  Occ=0.000000D+00  E= 1.324270D+00  Symmetry=a

         Total SCF energy =    -75.842093024365

 Vector    2  Occ=2.000000D+00  E=-1.298794D+00

 Vector    3  Occ=2.000000D+00  E=-6.640575D-01

 Vector    4  Occ=2.000000D+00  E=-5.381165D-01

 Vector    5  Occ=2.000000D+00  E=-4.576805D-01

 Vector    6  Occ=0.000000D+00  E=-1.119350D-01

 Vector    7  Occ=0.000000D+00  E=-2.629766D-02

 Vector    8  Occ=0.000000D+00  E=-1.361914D-02

 Vector    9  Occ=0.000000D+00  E= 3.027372D-01

 Vector   10  Occ=0.000000D+00  E= 3.727325D-01

 Vector   11  Occ=0.000000D+00  E= 6.103340D-01

 Vector   12  Occ=0.000000D+00  E= 7.736427D-01

 Vector   13  Occ=0.000000D+00  E= 7.939522D-01

 Vector   14  Occ=0.000000D+00  E= 8.698268D-01

 Vector   15  Occ=0.000000D+00  E= 9.054368D-01

       Multipole analysis of the density wrt the origin
       ------------------------------------------------

     L   x y z        total         open         nuclear
     -   - - -        -----         ----         -------
     0   0 0 0     -0.000000      0.000000     10.000000

     1   1 0 0      0.564285      0.000000     -0.000000
     1   0 1 0      0.216234      0.000000      0.000000
     1   0 0 1      0.000000      0.000000      0.000000

     2   2 0 0     -4.497257      0.000000      2.679864
     2   1 1 0     -0.799227      0.000000     -1.605322
     2   1 0 1     -0.000000      0.000000      0.000000
     2   0 2 0     -2.966567      0.000000     11.638064
     2   0 1 1     -0.000000      0.000000      0.000000

 CCSD total energy / hartree       =       -76.001295934507340
 Total times  cpu:       72.1s     wall:      105.5s
