============================== echo of input deck ==============================
 echo
 start H2O
 title "H2O"

 memory total 24 gb

 geometry units bohr
 symmetry c1
        O  0.00000000  0.00000000  0.00000000
        H  0.00000000  3.5209895  0.00000000
        H  1.72558000 -0.64860000  0.00000000
 end

 basis spherical
   * library cc-pVTZ
 end

 mcscf
   active  8
   actelec 10
   multiplicity 1
   maxiter 40
   vectors input h2o.mos
   vectors output h2o.mos
 end

 task mcscf

 scf
   vectors input h2o.mos
   vectors output h2o-trash.mos
   noscf
 end

 tce
   2eorb
   2emet 13
   ccsd
   maxiter 300
 end

 set tce:print_integrals T
 set tce:qorb 8
 set tce:qela 5
 set tce:qelb 5

# set tce:qducc T
# set tce:nactv 3
# set tce:nonhf T
# set tce:ducc_model 6

 set tce:printtol 0.02

 task tce
================================================================================

 Output coordinates in a.u. (scale by  1.000000000 to convert to a.u.)

  No.       Tag          Charge          X              Y              Z
 ---- ---------------- ---------- -------------- -------------- --------------
    1 O                    8.0000    -0.17255800    -0.28723895     0.00000000
    2 H                    1.0000    -0.17255800     3.23375055     0.00000000
    3 H                    1.0000     1.55302200    -0.93583895     0.00000000

 Vector    1  Occ=1.999991D+00  E=-2.060286D+01  Symmetry=a

 Vector    2  Occ=1.998267D+00  E=-1.299576D+00  Symmetry=a

 Vector    3  Occ=1.983005D+00  E=-6.648006D-01  Symmetry=a

 Vector    4  Occ=1.974038D+00  E=-5.392186D-01  Symmetry=a

 Vector    5  Occ=1.693932D+00  E=-4.522385D-01  Symmetry=a

 Vector    6  Occ=3.073358D-01  E=-1.169841D-01  Symmetry=a

 Vector    7  Occ=2.691817D-02  E=-2.629728D-02  Symmetry=a

 Vector    8  Occ=1.651232D-02  E=-1.355912D-02  Symmetry=a

 Vector    9  Occ=0.000000D+00  E= 3.015642D-01  Symmetry=a

 Vector   10  Occ=0.000000D+00  E= 3.747842D-01  Symmetry=a

 Vector   11  Occ=0.000000D+00  E= 6.108288D-01  Symmetry=a

 Vector   12  Occ=0.000000D+00  E= 7.730620D-01  Symmetry=a

 Vector   13  Occ=0.000000D+00  E= 7.938333D-01  Symmetry=a

 Vector   14  Occ=0.000000D+00  E= 8.674092D-01  Symmetry=a

 Vector   15  Occ=0.000000D+00  E= 8.978809D-01  Symmetry=a

 Vector   16  Occ=0.000000D+00  E= 9.345766D-01  Symmetry=a

 Vector   17  Occ=0.000000D+00  E= 9.735676D-01  Symmetry=a

 Vector   18  Occ=0.000000D+00  E= 1.324445D+00  Symmetry=a

         Total SCF energy =    -75.835608337175

 Vector    2  Occ=2.000000D+00  E=-1.299576D+00

 Vector    3  Occ=2.000000D+00  E=-6.648006D-01

 Vector    4  Occ=2.000000D+00  E=-5.392186D-01

 Vector    5  Occ=2.000000D+00  E=-4.522385D-01

 Vector    6  Occ=0.000000D+00  E=-1.169841D-01

 Vector    7  Occ=0.000000D+00  E=-2.629728D-02

 Vector    8  Occ=0.000000D+00  E=-1.355912D-02

 Vector    9  Occ=0.000000D+00  E= 3.015642D-01

 Vector   10  Occ=0.000000D+00  E= 3.747842D-01

 Vector   11  Occ=0.000000D+00  E= 6.108288D-01

 Vector   12  Occ=0.000000D+00  E= 7.730620D-01

 Vector   13  Occ=0.000000D+00  E= 7.938333D-01

 Vector   14  Occ=0.000000D+00  E= 8.674092D-01

 Vector   15  Occ=0.000000D+00  E= 8.978809D-01

       Multipole analysis of the density wrt the origin
       ------------------------------------------------

     L   x y z        total         open         nuclear
     -   - - -        -----         ----         -------
     0   0 0 0     -0.000000      0.000000     10.000000

     1   1 0 0      0.565392      0.000000     -0.000000
     1   0 1 0      0.198403      0.000000     -0.000000
     1   0 0 1      0.000000      0.000000      0.000000

     2   2 0 0     -4.500186      0.000000      2.679864
     2   1 1 0     -0.791940      0.000000     -1.614865
     2   1 0 1     -0.000000      0.000000      0.000000
     2   0 2 0     -2.991863      0.000000     11.992987
     2   0 1 1     -0.000000      0.000000      0.000000

 CCSD total energy / hartree       =       -75.998411130894752
 Total times  cpu:       72.2s     wall:      106.8s
