============================== echo of input deck ==============================
 echo
 start H2O
 title "H2O"

 memory total 24 gb

 geometry units bohr
 symmetry c1
        O  0.00000000  0.00000000  0.00000000
        H  0.00000000  3.613162  0.00000000
        H  1.72558000 -0.64860000  0.00000000
 end

 basis spherical
   * library cc-pVTZ
 end

 mcscf
   active  8
   actelec 10
   multiplicity 1
   maxiter 40
   vectors input h2o.mos
   vectors output h2o.mos
 end

 task mcscf

 scf
   vectors input h2o.mos
   vectors output h2o-trash.mos
   noscf
 end

 tce
   2eorb
   2emet 13
   ccsd
   maxiter 300
 end

 set tce:print_integrals T
 set tce:qorb 8
 set tce:qela 5
 set tce:qelb 5

# set tce:qducc T
# set tce:nactv 3
# set tce:nonhf T
# set tce:ducc_model 6

 set tce:printtol 0.02

 task tce
================================================================================

 Output coordinates in a.u. (scale by  1.000000000 to convert to a.u.)

  No.       Tag          Charge          X              Y              Z
 ---- ---------------- ---------- -------------- -------------- --------------
    1 O                    8.0000    -0.17255800    -0.29645620     0.00000000
    2 H                    1.0000    -0.17255800     3.31670580     0.00000000
    3 H                    1.0000     1.55302200    -0.94505620     0.00000000

 Vector    1  Occ=1.999991D+00  E=-2.060470D+01  Symmetry=a

 Vector    2  Occ=1.998328D+00  E=-1.300830D+00  Symmetry=a

 Vector    3  Occ=1.983312D+00  E=-6.660291D-01  Symmetry=a

 Vector    4  Occ=1.974115D+00  E=-5.409482D-01  Symmetry=a

 Vector    5  Occ=1.660324D+00  E=-4.431959D-01  Symmetry=a

 Vector    6  Occ=3.408217D-01  E=-1.255475D-01  Symmetry=a

 Vector    7  Occ=2.686292D-02  E=-2.629113D-02  Symmetry=a

 Vector    8  Occ=1.624579D-02  E=-1.346089D-02  Symmetry=a

 Vector    9  Occ=0.000000D+00  E= 2.994934D-01  Symmetry=a

 Vector   10  Occ=0.000000D+00  E= 3.781640D-01  Symmetry=a

 Vector   11  Occ=0.000000D+00  E= 6.118144D-01  Symmetry=a

 Vector   12  Occ=0.000000D+00  E= 7.724289D-01  Symmetry=a

 Vector   13  Occ=0.000000D+00  E= 7.924291D-01  Symmetry=a

 Vector   14  Occ=0.000000D+00  E= 8.604923D-01  Symmetry=a

 Vector   15  Occ=0.000000D+00  E= 8.888773D-01  Symmetry=a

 Vector   16  Occ=0.000000D+00  E= 9.312476D-01  Symmetry=a

 Vector   17  Occ=0.000000D+00  E= 9.705404D-01  Symmetry=a

 Vector   18  Occ=0.000000D+00  E= 1.323664D+00  Symmetry=a

         Total SCF energy =    -75.825094354301

 Vector    2  Occ=2.000000D+00  E=-1.300830D+00

 Vector    3  Occ=2.000000D+00  E=-6.660291D-01

 Vector    4  Occ=2.000000D+00  E=-5.409482D-01

 Vector    5  Occ=2.000000D+00  E=-4.431959D-01

 Vector    6  Occ=0.000000D+00  E=-1.255475D-01

 Vector    7  Occ=0.000000D+00  E=-2.629113D-02

 Vector    8  Occ=0.000000D+00  E=-1.346089D-02

 Vector    9  Occ=0.000000D+00  E= 2.994934D-01

 Vector   10  Occ=0.000000D+00  E= 3.781640D-01

 Vector   11  Occ=0.000000D+00  E= 6.118144D-01

 Vector   12  Occ=0.000000D+00  E= 7.724289D-01

 Vector   13  Occ=0.000000D+00  E= 7.924291D-01

 Vector   14  Occ=0.000000D+00  E= 8.604923D-01

 Vector   15  Occ=0.000000D+00  E= 8.888773D-01

       Multipole analysis of the density wrt the origin
       ------------------------------------------------

     L   x y z        total         open         nuclear
     -   - - -        -----         ----         -------
     0   0 0 0     -0.000000      0.000000     10.000000

     1   1 0 0      0.567361      0.000000     -0.000000
     1   0 1 0      0.169288      0.000000      0.000000
     1   0 0 1      0.000000      0.000000      0.000000

     2   2 0 0     -4.503869      0.000000      2.679864
     2   1 1 0     -0.779568      0.000000     -1.630770
     2   1 0 1     -0.000000      0.000000      0.000000
     2   0 2 0     -3.036859      0.000000     12.596759
     2   0 1 1     -0.000000      0.000000      0.000000

 CCSD total energy / hartree       =       -75.994044761390867
 Total times  cpu:       72.3s     wall:      106.3s
