============================== echo of input deck ==============================
 echo
 start H2O
 title "H2O"

 memory total 24 gb

 geometry units bohr
 symmetry c1
        O  0.00000000  0.00000000  0.00000000
        H  0.00000000  3.6684655  0.00000000
        H  1.72558000 -0.64860000  0.00000000
 end

 basis spherical
   * library cc-pVTZ
 end

 mcscf
   active  8
   actelec 10
   multiplicity 1
   maxiter 40
   vectors input h2o.mos
   vectors output h2o.mos
 end

 task mcscf

 scf
   vectors input h2o.mos
   vectors output h2o-trash.mos
   noscf
 end

 tce
   2eorb
   2emet 13
   ccsd
   maxiter 300
 end

 set tce:print_integrals T
 set tce:qorb 8
 set tce:qela 5
 set tce:qelb 5

# set tce:qducc T
# set tce:nactv 3
# set tce:nonhf T
# set tce:ducc_model 6

 set tce:printtol 0.02

 task tce
================================================================================

 Output coordinates in a.u. (scale by  1.000000000 to convert to a.u.)

  No.       Tag          Charge          X              Y              Z
 ---- ---------------- ---------- -------------- -------------- --------------
    1 O                    8.0000    -0.17255800    -0.30198655     0.00000000
    2 H                    1.0000    -0.17255800     3.36647895     0.00000000
    3 H                    1.0000     1.55302200    -0.95058655     0.00000000

 Vector    1  Occ=1.999991D+00  E=-2.060568D+01  Symmetry=a

 Vector    2  Occ=1.998364D+00  E=-1.301537D+00  Symmetry=a

 Vector    3  Occ=1.983484D+00  E=-6.667395D-01  Symmetry=a

 Vector    4  Occ=1.974161D+00  E=-5.419106D-01  Symmetry=a

 Vector    5  Occ=1.639856D+00  E=-4.378267D-01  Symmetry=a

 Vector    6  Occ=3.612181D-01  E=-1.307227D-01  Symmetry=a

 Vector    7  Occ=2.682867D-02  E=-2.628452D-02  Symmetry=a

 Vector    8  Occ=1.609596D-02  E=-1.340377D-02  Symmetry=a

 Vector    9  Occ=0.000000D+00  E= 2.982084D-01  Symmetry=a

 Vector   10  Occ=0.000000D+00  E= 3.801573D-01  Symmetry=a

 Vector   11  Occ=0.000000D+00  E= 6.124910D-01  Symmetry=a

 Vector   12  Occ=0.000000D+00  E= 7.722371D-01  Symmetry=a

 Vector   13  Occ=0.000000D+00  E= 7.906607D-01  Symmetry=a

 Vector   14  Occ=0.000000D+00  E= 8.552257D-01  Symmetry=a

 Vector   15  Occ=0.000000D+00  E= 8.852346D-01  Symmetry=a

 Vector   16  Occ=0.000000D+00  E= 9.292608D-01  Symmetry=a

 Vector   17  Occ=0.000000D+00  E= 9.693175D-01  Symmetry=a

 Vector   18  Occ=0.000000D+00  E= 1.322502D+00  Symmetry=a

         Total SCF energy =    -75.818962429022

 Vector    2  Occ=2.000000D+00  E=-1.301537D+00

 Vector    3  Occ=2.000000D+00  E=-6.667395D-01

 Vector    4  Occ=2.000000D+00  E=-5.419106D-01

 Vector    5  Occ=2.000000D+00  E=-4.378267D-01

 Vector    6  Occ=0.000000D+00  E=-1.307227D-01

 Vector    7  Occ=0.000000D+00  E=-2.628452D-02

 Vector    8  Occ=0.000000D+00  E=-1.340377D-02

 Vector    9  Occ=0.000000D+00  E= 2.982084D-01

 Vector   10  Occ=0.000000D+00  E= 3.801573D-01

 Vector   11  Occ=0.000000D+00  E= 6.124910D-01

 Vector   12  Occ=0.000000D+00  E= 7.722371D-01

 Vector   13  Occ=0.000000D+00  E= 7.906607D-01

 Vector   14  Occ=0.000000D+00  E= 8.552257D-01

 Vector   15  Occ=0.000000D+00  E= 8.852346D-01

       Multipole analysis of the density wrt the origin
       ------------------------------------------------

     L   x y z        total         open         nuclear
     -   - - -        -----         ----         -------
     0   0 0 0     -0.000000      0.000000     10.000000

     1   1 0 0      0.568598      0.000000     -0.000000
     1   0 1 0      0.152294      0.000000      0.000000
     1   0 0 1      0.000000      0.000000      0.000000

     2   2 0 0     -4.505413      0.000000      2.679864
     2   1 1 0     -0.772094      0.000000     -1.640313
     2   1 0 1     -0.000000      0.000000      0.000000
     2   0 2 0     -3.065157      0.000000     12.966362
     2   0 1 1     -0.000000      0.000000      0.000000

 CCSD total energy / hartree       =       -75.991675410730878
 Total times  cpu:       71.3s     wall:      105.3s
