============================== echo of input deck ==============================
 echo
 start H2O
 title "H2O"

 memory total 24 gb

 geometry units bohr
 symmetry c1
        O  0.00000000  0.00000000  0.00000000
        H  0.00000000  3.760638  0.00000000
        H  1.72558000 -0.64860000  0.00000000
 end

 basis spherical
   * library cc-pVTZ
 end

 mcscf
   active  8
   actelec 10
   multiplicity 1
   maxiter 40
   vectors input h2o.mos
   vectors output h2o.mos
 end

 task mcscf

 scf
   vectors input h2o.mos
   vectors output h2o-trash.mos
   noscf
 end

 tce
   2eorb
   2emet 13
   ccsd
   maxiter 300
 end

 set tce:print_integrals T
 set tce:qorb 8
 set tce:qela 5
 set tce:qelb 5

# set tce:qducc T
# set tce:nactv 3
# set tce:nonhf T
# set tce:ducc_model 6

 set tce:printtol 0.02

 task tce
================================================================================

 Output coordinates in a.u. (scale by  1.000000000 to convert to a.u.)

  No.       Tag          Charge          X              Y              Z
 ---- ---------------- ---------- -------------- -------------- --------------
    1 O                    8.0000    -0.17255800    -0.31120380     0.00000000
    2 H                    1.0000    -0.17255800     3.44943420     0.00000000
    3 H                    1.0000     1.55302200    -0.95980380     0.00000000

 Vector    1  Occ=1.999991D+00  E=-2.060707D+01  Symmetry=a

 Vector    2  Occ=1.998423D+00  E=-1.302596D+00  Symmetry=a

 Vector    3  Occ=1.983752D+00  E=-6.678015D-01  Symmetry=a

 Vector    4  Occ=1.974237D+00  E=-5.433314D-01  Symmetry=a

 Vector    5  Occ=1.605545D+00  E=-4.291874D-01  Symmetry=a

 Vector    6  Occ=3.954143D-01  E=-1.391883D-01  Symmetry=a

 Vector    7  Occ=2.677222D-02  E=-2.627453D-02  Symmetry=a

 Vector    8  Occ=1.586511D-02  E=-1.332121D-02  Symmetry=a

 Vector    9  Occ=0.000000D+00  E= 2.962623D-01  Symmetry=a

 Vector   10  Occ=0.000000D+00  E= 3.833625D-01  Symmetry=a

 Vector   11  Occ=0.000000D+00  E= 6.136202D-01  Symmetry=a

 Vector   12  Occ=0.000000D+00  E= 7.721892D-01  Symmetry=a

 Vector   13  Occ=0.000000D+00  E= 7.856667D-01  Symmetry=a

 Vector   14  Occ=0.000000D+00  E= 8.465357D-01  Symmetry=a

 Vector   15  Occ=0.000000D+00  E= 8.805325D-01  Symmetry=a

 Vector   16  Occ=0.000000D+00  E= 9.259504D-01  Symmetry=a

 Vector   17  Occ=0.000000D+00  E= 9.681986D-01  Symmetry=a

 Vector   18  Occ=0.000000D+00  E= 1.319361D+00  Symmetry=a

         Total SCF energy =    -75.809038381023

 Vector    2  Occ=2.000000D+00  E=-1.302596D+00

 Vector    3  Occ=2.000000D+00  E=-6.678015D-01

 Vector    4  Occ=2.000000D+00  E=-5.433314D-01

 Vector    5  Occ=2.000000D+00  E=-4.291874D-01

 Vector    6  Occ=0.000000D+00  E=-1.391883D-01

 Vector    7  Occ=0.000000D+00  E=-2.627453D-02

 Vector    8  Occ=0.000000D+00  E=-1.332121D-02

 Vector    9  Occ=0.000000D+00  E= 2.962623D-01

 Vector   10  Occ=0.000000D+00  E= 3.833625D-01

 Vector   11  Occ=0.000000D+00  E= 6.136202D-01

 Vector   12  Occ=0.000000D+00  E= 7.721892D-01

 Vector   13  Occ=0.000000D+00  E= 7.856667D-01

 Vector   14  Occ=0.000000D+00  E= 8.465357D-01

 Vector   15  Occ=0.000000D+00  E= 8.805325D-01

       Multipole analysis of the density wrt the origin
       ------------------------------------------------

     L   x y z        total         open         nuclear
     -   - - -        -----         ----         -------
     0   0 0 0     -0.000000      0.000000     10.000000

     1   1 0 0      0.570717      0.000000     -0.000000
     1   0 1 0      0.124973      0.000000     -0.000000
     1   0 0 1      0.000000      0.000000      0.000000

     2   2 0 0     -4.507051      0.000000      2.679864
     2   1 1 0     -0.759686      0.000000     -1.656218
     2   1 0 1     -0.000000      0.000000      0.000000
     2   0 2 0     -3.113651      0.000000     13.594602
     2   0 1 1     -0.000000      0.000000      0.000000

 CCSD total energy / hartree       =       -75.988113912580133
 Total times  cpu:       74.1s     wall:      109.8s
