============================== echo of input deck ==============================
 echo
 start H2O
 title "H2O"

 memory total 24 gb

 geometry units bohr
 symmetry c1
        O  0.00000000  0.00000000  0.00000000
        H  0.00000000  3.9634175  0.00000000
        H  1.72558000 -0.64860000  0.00000000
 end

 basis spherical
   * library cc-pVTZ
 end

 mcscf
   active  8
   actelec 10
   multiplicity 1
   maxiter 40
   vectors input h2o.mos
   vectors output h2o.mos
 end

 task mcscf

 scf
   vectors input h2o.mos
   vectors output h2o-trash.mos
   noscf
 end

 tce
   2eorb
   2emet 13
   ccsd
   maxiter 300
 end

 set tce:print_integrals T
 set tce:qorb 8
 set tce:qela 5
 set tce:qelb 5

# set tce:qducc T
# set tce:nactv 3
# set tce:nonhf T
# set tce:ducc_model 6

 set tce:printtol 0.02

 task tce
================================================================================

 Output coordinates in a.u. (scale by  1.000000000 to convert to a.u.)

  No.       Tag          Charge          X              Y              Z
 ---- ---------------- ---------- -------------- -------------- --------------
    1 O                    8.0000    -0.17255800    -0.33148175     0.00000000
    2 H                    1.0000    -0.17255800     3.63193575     0.00000000
    3 H                    1.0000     1.55302200    -0.98008175     0.00000000

 Vector    1  Occ=1.999992D+00  E=-2.060923D+01  Symmetry=a

 Vector    2  Occ=1.998540D+00  E=-1.304446D+00  Symmetry=a

 Vector    3  Occ=1.984251D+00  E=-6.696549D-01  Symmetry=a

 Vector    4  Occ=1.974391D+00  E=-5.457655D-01  Symmetry=a

 Vector    5  Occ=1.530802D+00  E=-4.114791D-01  Symmetry=a

 Vector    6  Occ=4.699328D-01  E=-1.569913D-01  Symmetry=a

 Vector    7  Occ=2.665542D-02  E=-2.625136D-02  Symmetry=a

 Vector    8  Occ=1.543706D-02  E=-1.317814D-02  Symmetry=a

 Vector    9  Occ=0.000000D+00  E= 2.925634D-01  Symmetry=a

 Vector   10  Occ=0.000000D+00  E= 3.900252D-01  Symmetry=a

 Vector   11  Occ=0.000000D+00  E= 6.163116D-01  Symmetry=a

 Vector   12  Occ=0.000000D+00  E= 7.659292D-01  Symmetry=a

 Vector   13  Occ=0.000000D+00  E= 7.731439D-01  Symmetry=a

 Vector   14  Occ=0.000000D+00  E= 8.343393D-01  Symmetry=a

 Vector   15  Occ=0.000000D+00  E= 8.712775D-01  Symmetry=a

 Vector   16  Occ=0.000000D+00  E= 9.187742D-01  Symmetry=a

 Vector   17  Occ=0.000000D+00  E= 9.690623D-01  Symmetry=a

 Vector   18  Occ=0.000000D+00  E= 1.306774D+00  Symmetry=a

         Total SCF energy =    -75.788487206493

 Vector    2  Occ=2.000000D+00  E=-1.304446D+00

 Vector    3  Occ=2.000000D+00  E=-6.696549D-01

 Vector    4  Occ=2.000000D+00  E=-5.457655D-01

 Vector    5  Occ=2.000000D+00  E=-4.114791D-01

 Vector    6  Occ=0.000000D+00  E=-1.569913D-01

 Vector    7  Occ=0.000000D+00  E=-2.625136D-02

 Vector    8  Occ=0.000000D+00  E=-1.317814D-02

 Vector    9  Occ=0.000000D+00  E= 2.925634D-01

 Vector   10  Occ=0.000000D+00  E= 3.900252D-01

 Vector   11  Occ=0.000000D+00  E= 6.163116D-01

 Vector   12  Occ=0.000000D+00  E= 7.659292D-01

 Vector   13  Occ=0.000000D+00  E= 7.731439D-01

 Vector   14  Occ=0.000000D+00  E= 8.343393D-01

 Vector   15  Occ=0.000000D+00  E= 8.712775D-01

       Multipole analysis of the density wrt the origin
       ------------------------------------------------

     L   x y z        total         open         nuclear
     -   - - -        -----         ----         -------
     0   0 0 0      0.000000      0.000000     10.000000

     1   1 0 0      0.575525      0.000000     -0.000000
     1   0 1 0      0.069704      0.000000      0.000000
     1   0 0 1      0.000000      0.000000      0.000000

     2   2 0 0     -4.506949      0.000000      2.679864
     2   1 1 0     -0.733363      0.000000     -1.691209
     2   1 0 1     -0.000000      0.000000      0.000000
     2   0 2 0     -3.223437      0.000000     15.030559
     2   0 1 1     -0.000000      0.000000      0.000000

 CCSD total energy / hartree       =       -75.981787041640274
 Total times  cpu:       91.2s     wall:      131.2s
