============================== echo of input deck ==============================
 echo
 start H2O
 title "H2O"

 memory total 24 gb

 geometry units bohr
 symmetry c1
        O  0.00000000  0.00000000  0.00000000
        H  0.00000000  3.981852  0.00000000
        H  1.72558000 -0.64860000  0.00000000
 end

 basis spherical
   * library cc-pVTZ
 end

 mcscf
   active  8
   actelec 10
   multiplicity 1
   maxiter 40
   vectors input h2o.mos
   vectors output h2o.mos
 end

 task mcscf

 scf
   vectors input h2o.mos
   vectors output h2o-trash.mos
   noscf
 end

 tce
   2eorb
   2emet 13
   ccsd
   maxiter 300
 end

 set tce:print_integrals T
 set tce:qorb 8
 set tce:qela 5
 set tce:qelb 5

# set tce:qducc T
# set tce:nactv 3
# set tce:nonhf T
# set tce:ducc_model 6

 set tce:printtol 0.02

 task tce
================================================================================

 Output coordinates in a.u. (scale by  1.000000000 to convert to a.u.)

  No.       Tag          Charge          X              Y              Z
 ---- ---------------- ---------- -------------- -------------- --------------
    1 O                    8.0000    -0.17255800    -0.33332520     0.00000000
    2 H                    1.0000    -0.17255800     3.64852680     0.00000000
    3 H                    1.0000     1.55302200    -0.98192520     0.00000000

 Vector    1  Occ=1.999992D+00  E=-2.060942D+01  Symmetry=a

 Vector    2  Occ=1.998549D+00  E=-1.304601D+00  Symmetry=a

 Vector    3  Occ=1.984290D+00  E=-6.698311D-01  Symmetry=a

 Vector    4  Occ=1.974403D+00  E=-5.459794D-01  Symmetry=a

 Vector    5  Occ=1.524155D+00  E=-4.098461D-01  Symmetry=a

 Vector    6  Occ=4.765610D-01  E=-1.586413D-01  Symmetry=a

 Vector    7  Occ=2.664599D-02  E=-2.624608D-02  Symmetry=a

 Vector    8  Occ=1.540383D-02  E=-1.315877D-02  Symmetry=a

 Vector    9  Occ=0.000000D+00  E= 2.920094D-01  Symmetry=a

 Vector   10  Occ=0.000000D+00  E= 3.906432D-01  Symmetry=a

 Vector   11  Occ=0.000000D+00  E= 6.167327D-01  Symmetry=a

 Vector   12  Occ=0.000000D+00  E= 7.638356D-01  Symmetry=a

 Vector   13  Occ=0.000000D+00  E= 7.732376D-01  Symmetry=a

 Vector   14  Occ=0.000000D+00  E= 8.337217D-01  Symmetry=a

 Vector   15  Occ=0.000000D+00  E= 8.704511D-01  Symmetry=a

 Vector   16  Occ=0.000000D+00  E= 9.181650D-01  Symmetry=a

 Vector   17  Occ=0.000000D+00  E= 9.692970D-01  Symmetry=a

 Vector   18  Occ=0.000000D+00  E= 1.305236D+00  Symmetry=a

         Total SCF energy =    -75.786706518154

 Vector    2  Occ=2.000000D+00  E=-1.304601D+00

 Vector    3  Occ=2.000000D+00  E=-6.698311D-01

 Vector    4  Occ=2.000000D+00  E=-5.459794D-01

 Vector    5  Occ=2.000000D+00  E=-4.098461D-01

 Vector    6  Occ=0.000000D+00  E=-1.586413D-01

 Vector    7  Occ=0.000000D+00  E=-2.624608D-02

 Vector    8  Occ=0.000000D+00  E=-1.315877D-02

 Vector    9  Occ=0.000000D+00  E= 2.920094D-01

 Vector   10  Occ=0.000000D+00  E= 3.906432D-01

 Vector   11  Occ=0.000000D+00  E= 6.167327D-01

 Vector   12  Occ=0.000000D+00  E= 7.638356D-01

 Vector   13  Occ=0.000000D+00  E= 7.732376D-01

 Vector   14  Occ=0.000000D+00  E= 8.337217D-01

 Vector   15  Occ=0.000000D+00  E= 8.704511D-01

       Multipole analysis of the density wrt the origin
       ------------------------------------------------

     L   x y z        total         open         nuclear
     -   - - -        -----         ----         -------
     0   0 0 0     -0.000000      0.000000     10.000000

     1   1 0 0      0.575958      0.000000     -0.000000
     1   0 1 0      0.065046      0.000000      0.000000
     1   0 0 1      0.000000      0.000000      0.000000

     2   2 0 0     -4.506759      0.000000      2.679864
     2   1 1 0     -0.731070      0.000000     -1.694390
     2   1 0 1     -0.000000      0.000000      0.000000
     2   0 2 0     -3.233389      0.000000     15.164770
     2   0 1 1     -0.000000      0.000000      0.000000

 CCSD total energy / hartree       =       -75.981302830174826
 Total times  cpu:       82.5s     wall:      120.7s
