============================== echo of input deck ==============================
 echo
 start H2O
 title "H2O"

 memory total 24 gb

 geometry units bohr
 symmetry c1
        O  0.00000000  0.00000000  0.00000000
        H  0.00000000  4.0002865  0.00000000
        H  1.72558000 -0.64860000  0.00000000
 end

 basis spherical
   * library cc-pVTZ
 end

 mcscf
   active  8
   actelec 10
   multiplicity 1
   maxiter 40
   vectors input h2o.mos
   vectors output h2o.mos
 end

 task mcscf

 scf
   vectors input h2o.mos
   vectors output h2o-trash.mos
   noscf
 end

 tce
   2eorb
   2emet 13
   ccsd
   maxiter 300
 end

 set tce:print_integrals T
 set tce:qorb 8
 set tce:qela 5
 set tce:qelb 5

# set tce:qducc T
# set tce:nactv 3
# set tce:nonhf T
# set tce:ducc_model 6

 set tce:printtol 0.02

 task tce
================================================================================

 Output coordinates in a.u. (scale by  1.000000000 to convert to a.u.)

  No.       Tag          Charge          X              Y              Z
 ---- ---------------- ---------- -------------- -------------- --------------
    1 O                    8.0000    -0.17255800    -0.33516865     0.00000000
    2 H                    1.0000    -0.17255800     3.66511785     0.00000000
    3 H                    1.0000     1.55302200    -0.98376865     0.00000000

 Vector    1  Occ=1.999992D+00  E=-2.060958D+01  Symmetry=a

 Vector    2  Occ=1.998559D+00  E=-1.304741D+00  Symmetry=a

 Vector    3  Occ=1.984327D+00  E=-6.699786D-01  Symmetry=a

 Vector    4  Occ=1.974416D+00  E=-5.461657D-01  Symmetry=a

 Vector    5  Occ=1.517546D+00  E=-4.083003D-01  Symmetry=a

 Vector    6  Occ=4.831525D-01  E=-1.602162D-01  Symmetry=a

 Vector    7  Occ=2.663673D-02  E=-2.624217D-02  Symmetry=a

 Vector    8  Occ=1.537150D-02  E=-1.314519D-02  Symmetry=a

 Vector    9  Occ=0.000000D+00  E= 2.916254D-01  Symmetry=a

 Vector   10  Occ=0.000000D+00  E= 3.912350D-01  Symmetry=a

 Vector   11  Occ=0.000000D+00  E= 6.170486D-01  Symmetry=a

 Vector   12  Occ=0.000000D+00  E= 7.616419D-01  Symmetry=a

 Vector   13  Occ=0.000000D+00  E= 7.733892D-01  Symmetry=a

 Vector   14  Occ=0.000000D+00  E= 8.331453D-01  Symmetry=a

 Vector   15  Occ=0.000000D+00  E= 8.696046D-01  Symmetry=a

 Vector   16  Occ=0.000000D+00  E= 9.175376D-01  Symmetry=a

 Vector   17  Occ=0.000000D+00  E= 9.695626D-01  Symmetry=a

 Vector   18  Occ=0.000000D+00  E= 1.303644D+00  Symmetry=a

         Total SCF energy =    -75.784938093015

 Vector    2  Occ=2.000000D+00  E=-1.304741D+00

 Vector    3  Occ=2.000000D+00  E=-6.699786D-01

 Vector    4  Occ=2.000000D+00  E=-5.461657D-01

 Vector    5  Occ=2.000000D+00  E=-4.083003D-01

 Vector    6  Occ=0.000000D+00  E=-1.602162D-01

 Vector    7  Occ=0.000000D+00  E=-2.624217D-02

 Vector    8  Occ=0.000000D+00  E=-1.314519D-02

 Vector    9  Occ=0.000000D+00  E= 2.916254D-01

 Vector   10  Occ=0.000000D+00  E= 3.912350D-01

 Vector   11  Occ=0.000000D+00  E= 6.170486D-01

 Vector   12  Occ=0.000000D+00  E= 7.616419D-01

 Vector   13  Occ=0.000000D+00  E= 7.733892D-01

 Vector   14  Occ=0.000000D+00  E= 8.331453D-01

 Vector   15  Occ=0.000000D+00  E= 8.696046D-01

       Multipole analysis of the density wrt the origin
       ------------------------------------------------

     L   x y z        total         open         nuclear
     -   - - -        -----         ----         -------
     0   0 0 0     -0.000000      0.000000     10.000000

     1   1 0 0      0.576382      0.000000     -0.000000
     1   0 1 0      0.060456      0.000000     -0.000000
     1   0 0 1      0.000000      0.000000      0.000000

     2   2 0 0     -4.506491      0.000000      2.679864
     2   1 1 0     -0.728851      0.000000     -1.697572
     2   1 0 1     -0.000000      0.000000      0.000000
     2   0 2 0     -3.243282      0.000000     15.299594
     2   0 1 1     -0.000000      0.000000      0.000000

 CCSD total energy / hartree       =       -75.980832326975360
 Total times  cpu:       79.7s     wall:      117.1s
