============================== echo of input deck ==============================
 echo
 start H2O
 title "H2O"

 memory total 24 gb

 geometry units bohr
 symmetry c1
        O  0.00000000  0.00000000  0.00000000
        H  0.00000000  4.203066  0.00000000
        H  1.72558000 -0.64860000  0.00000000
 end

 basis spherical
   * library cc-pVTZ
 end

 mcscf
   active  8
   actelec 10
   multiplicity 1
   maxiter 40
   vectors input h2o.mos
   vectors output h2o.mos
 end

 task mcscf

 scf
   vectors input h2o.mos
   vectors output h2o-trash.mos
   noscf
 end

 tce
   2eorb
   2emet 13
   ccsd
   maxiter 300
 end

 set tce:print_integrals T
 set tce:qorb 8
 set tce:qela 5
 set tce:qelb 5

# set tce:qducc T
# set tce:nactv 3
# set tce:nonhf T
# set tce:ducc_model 6

 set tce:printtol 0.02

 task tce
================================================================================

 Output coordinates in a.u. (scale by  1.000000000 to convert to a.u.)

  No.       Tag          Charge          X              Y              Z
 ---- ---------------- ---------- -------------- -------------- --------------
    1 O                    8.0000    -0.17255800    -0.35544660     0.00000000
    2 H                    1.0000    -0.17255800     3.84761940     0.00000000
    3 H                    1.0000     1.55302200    -1.00404660     0.00000000

 Vector    1  Occ=1.999992D+00  E=-2.061073D+01  Symmetry=a

 Vector    2  Occ=1.998651D+00  E=-1.305937D+00  Symmetry=a

 Vector    3  Occ=1.984691D+00  E=-6.711997D-01  Symmetry=a

 Vector    4  Occ=1.974539D+00  E=-5.477361D-01  Symmetry=a

 Vector    5  Occ=1.447410D+00  E=-3.927195D-01  Symmetry=a

 Vector    6  Occ=5.531137D-01  E=-1.762918D-01  Symmetry=a

 Vector    7  Occ=2.654153D-02  E=-2.621238D-02  Symmetry=a

 Vector    8  Occ=1.506166D-02  E=-1.303311D-02  Symmetry=a

 Vector    9  Occ=0.000000D+00  E= 2.881897D-01  Symmetry=a

 Vector   10  Occ=0.000000D+00  E= 3.974184D-01  Symmetry=a

 Vector   11  Occ=0.000000D+00  E= 6.204894D-01  Symmetry=a

 Vector   12  Occ=0.000000D+00  E= 7.366844D-01  Symmetry=a

 Vector   13  Occ=0.000000D+00  E= 7.754405D-01  Symmetry=a

 Vector   14  Occ=0.000000D+00  E= 8.290281D-01  Symmetry=a

 Vector   15  Occ=0.000000D+00  E= 8.602690D-01  Symmetry=a

 Vector   16  Occ=0.000000D+00  E= 9.108172D-01  Symmetry=a

 Vector   17  Occ=0.000000D+00  E= 9.735157D-01  Symmetry=a

 Vector   18  Occ=0.000000D+00  E= 1.282407D+00  Symmetry=a

         Total SCF energy =    -75.766422146766

 Vector    2  Occ=2.000000D+00  E=-1.305937D+00

 Vector    3  Occ=2.000000D+00  E=-6.711997D-01

 Vector    4  Occ=2.000000D+00  E=-5.477361D-01

 Vector    5  Occ=2.000000D+00  E=-3.927195D-01

 Vector    6  Occ=0.000000D+00  E=-1.762918D-01

 Vector    7  Occ=0.000000D+00  E=-2.621238D-02

 Vector    8  Occ=0.000000D+00  E=-1.303311D-02

 Vector    9  Occ=0.000000D+00  E= 2.881897D-01

 Vector   10  Occ=0.000000D+00  E= 3.974184D-01

 Vector   11  Occ=0.000000D+00  E= 6.204894D-01

 Vector   12  Occ=0.000000D+00  E= 7.366844D-01

 Vector   13  Occ=0.000000D+00  E= 7.754405D-01

 Vector   14  Occ=0.000000D+00  E= 8.290281D-01

 Vector   15  Occ=0.000000D+00  E= 8.602690D-01

       Multipole analysis of the density wrt the origin
       ------------------------------------------------

     L   x y z        total         open         nuclear
     -   - - -        -----         ----         -------
     0   0 0 0     -0.000000      0.000000     10.000000

     1   1 0 0      0.581144      0.000000     -0.000000
     1   0 1 0      0.013563      0.000000      0.000000
     1   0 0 1      0.000000      0.000000      0.000000

     2   2 0 0     -4.501912      0.000000      2.679864
     2   1 1 0     -0.705557      0.000000     -1.732563
     2   1 0 1     -0.000000      0.000000      0.000000
     2   0 2 0     -3.352008      0.000000     16.823023
     2   0 1 1     -0.000000      0.000000      0.000000

 CCSD total energy / hartree       =       -75.976471953507399
 Total times  cpu:       79.5s     wall:      117.2s
