============================== echo of input deck ==============================
 echo
 start H2O
 title "H2O"

 memory total 24 gb

 geometry units bohr
 symmetry c1
        O  0.00000000  0.00000000  0.00000000
        H  0.00000000  4.3689765  0.00000000
        H  1.72558000 -0.64860000  0.00000000
 end

 basis spherical
   * library cc-pVTZ
 end

 mcscf
   active  8
   actelec 10
   multiplicity 1
   maxiter 40
   vectors input h2o.mos
   vectors output h2o.mos
 end

 task mcscf

 scf
   vectors input h2o.mos
   vectors output h2o-trash.mos
   noscf
 end

 tce
   2eorb
   2emet 13
   ccsd
   maxiter 300
 end

 set tce:print_integrals T
 set tce:qorb 8
 set tce:qela 5
 set tce:qelb 5

# set tce:qducc T
# set tce:nactv 3
# set tce:nonhf T
# set tce:ducc_model 6

 set tce:printtol 0.02

 task tce
================================================================================

 Output coordinates in a.u. (scale by  1.000000000 to convert to a.u.)

  No.       Tag          Charge          X              Y              Z
 ---- ---------------- ---------- -------------- -------------- --------------
    1 O                    8.0000    -0.17255800    -0.37203765     0.00000000
    2 H                    1.0000    -0.17255800     3.99693885     0.00000000
    3 H                    1.0000     1.55302200    -1.02063765     0.00000000

 Vector    1  Occ=1.999992D+00  E=-2.061123D+01  Symmetry=a

 Vector    2  Occ=1.998712D+00  E=-1.306586D+00  Symmetry=a

 Vector    3  Occ=1.984918D+00  E=-6.718614D-01  Symmetry=a

 Vector    4  Occ=1.974619D+00  E=-5.485938D-01  Symmetry=a

 Vector    5  Occ=1.394526D+00  E=-3.815127D-01  Symmetry=a

 Vector    6  Occ=6.058842D-01  E=-1.879979D-01  Symmetry=a

 Vector    7  Occ=2.647874D-02  E=-2.618909D-02  Symmetry=a

 Vector    8  Occ=1.486933D-02  E=-1.296162D-02  Symmetry=a

 Vector    9  Occ=0.000000D+00  E= 2.856812D-01  Symmetry=a

 Vector   10  Occ=0.000000D+00  E= 4.021198D-01  Symmetry=a

 Vector   11  Occ=0.000000D+00  E= 6.235673D-01  Symmetry=a

 Vector   12  Occ=0.000000D+00  E= 7.181347D-01  Symmetry=a

 Vector   13  Occ=0.000000D+00  E= 7.774988D-01  Symmetry=a

 Vector   14  Occ=0.000000D+00  E= 8.266324D-01  Symmetry=a

 Vector   15  Occ=0.000000D+00  E= 8.534302D-01  Symmetry=a

 Vector   16  Occ=0.000000D+00  E= 9.057318D-01  Symmetry=a

 Vector   17  Occ=0.000000D+00  E= 9.773181D-01  Symmetry=a

 Vector   18  Occ=0.000000D+00  E= 1.260791D+00  Symmetry=a

         Total SCF energy =    -75.752506401293

 Vector    2  Occ=2.000000D+00  E=-1.306586D+00

 Vector    3  Occ=2.000000D+00  E=-6.718614D-01

 Vector    4  Occ=2.000000D+00  E=-5.485938D-01

 Vector    5  Occ=2.000000D+00  E=-3.815127D-01

 Vector    6  Occ=0.000000D+00  E=-1.879979D-01

 Vector    7  Occ=0.000000D+00  E=-2.618909D-02

 Vector    8  Occ=0.000000D+00  E=-1.296162D-02

 Vector    9  Occ=0.000000D+00  E= 2.856812D-01

 Vector   10  Occ=0.000000D+00  E= 4.021198D-01

 Vector   11  Occ=0.000000D+00  E= 6.235673D-01

 Vector   12  Occ=0.000000D+00  E= 7.181347D-01

 Vector   13  Occ=0.000000D+00  E= 7.774988D-01

 Vector   14  Occ=0.000000D+00  E= 8.266324D-01

 Vector   15  Occ=0.000000D+00  E= 8.534302D-01

       Multipole analysis of the density wrt the origin
       ------------------------------------------------

     L   x y z        total         open         nuclear
     -   - - -        -----         ----         -------
     0   0 0 0     -0.000000      0.000000     10.000000

     1   1 0 0      0.584866      0.000000     -0.000000
     1   0 1 0     -0.019698      0.000000      0.000000
     1   0 0 1      0.000000      0.000000      0.000000

     2   2 0 0     -4.496281      0.000000      2.679864
     2   1 1 0     -0.689065      0.000000     -1.761192
     2   1 0 1     -0.000000      0.000000      0.000000
     2   0 2 0     -3.437521      0.000000     18.124517
     2   0 1 1     -0.000000      0.000000      0.000000

 CCSD total energy / hartree       =       -75.973834286881555
 Total times  cpu:       78.8s     wall:      115.5s
