============================== echo of input deck ==============================
 echo
 start H2O
 title "H2O"

 memory total 24 gb

 geometry units bohr
 symmetry c1
        O  0.00000000  0.00000000  0.00000000
        H  0.00000000  4.387411  0.00000000
        H  1.72558000 -0.64860000  0.00000000
 end

 basis spherical
   * library cc-pVTZ
 end

 mcscf
   active  8
   actelec 10
   multiplicity 1
   maxiter 40
   vectors input h2o.mos
   vectors output h2o.mos
 end

 task mcscf

 scf
   vectors input h2o.mos
   vectors output h2o-trash.mos
   noscf
 end

 tce
   2eorb
   2emet 13
   ccsd
   maxiter 300
 end

 set tce:print_integrals T
 set tce:qorb 8
 set tce:qela 5
 set tce:qelb 5

# set tce:qducc T
# set tce:nactv 3
# set tce:nonhf T
# set tce:ducc_model 6

 set tce:printtol 0.02

 task tce
================================================================================

 Output coordinates in a.u. (scale by  1.000000000 to convert to a.u.)

  No.       Tag          Charge          X              Y              Z
 ---- ---------------- ---------- -------------- -------------- --------------
    1 O                    8.0000    -0.17255800    -0.37388110     0.00000000
    2 H                    1.0000    -0.17255800     4.01352990     0.00000000
    3 H                    1.0000     1.55302200    -1.02248110     0.00000000

 Vector    1  Occ=1.999992D+00  E=-2.061127D+01  Symmetry=a

 Vector    2  Occ=1.998718D+00  E=-1.306643D+00  Symmetry=a

 Vector    3  Occ=1.984940D+00  E=-6.719199D-01  Symmetry=a

 Vector    4  Occ=1.974627D+00  E=-5.486702D-01  Symmetry=a

 Vector    5  Occ=1.388931D+00  E=-3.803534D-01  Symmetry=a

 Vector    6  Occ=6.114680D-01  E=-1.892140D-01  Symmetry=a

 Vector    7  Occ=2.647256D-02  E=-2.618653D-02  Symmetry=a

 Vector    8  Occ=1.485086D-02  E=-1.295460D-02  Symmetry=a

 Vector    9  Occ=0.000000D+00  E= 2.854154D-01  Symmetry=a

 Vector   10  Occ=0.000000D+00  E= 4.026180D-01  Symmetry=a

 Vector   11  Occ=0.000000D+00  E= 6.239170D-01  Symmetry=a

 Vector   12  Occ=0.000000D+00  E= 7.162681D-01  Symmetry=a

 Vector   13  Occ=0.000000D+00  E= 7.777385D-01  Symmetry=a

 Vector   14  Occ=0.000000D+00  E= 8.263417D-01  Symmetry=a

 Vector   15  Occ=0.000000D+00  E= 8.527544D-01  Symmetry=a

 Vector   16  Occ=0.000000D+00  E= 9.051945D-01  Symmetry=a

 Vector   17  Occ=0.000000D+00  E= 9.777356D-01  Symmetry=a

 Vector   18  Occ=0.000000D+00  E= 1.258209D+00  Symmetry=a

         Total SCF energy =    -75.751026908851

 Vector    2  Occ=2.000000D+00  E=-1.306643D+00

 Vector    3  Occ=2.000000D+00  E=-6.719199D-01

 Vector    4  Occ=2.000000D+00  E=-5.486702D-01

 Vector    5  Occ=2.000000D+00  E=-3.803534D-01

 Vector    6  Occ=0.000000D+00  E=-1.892140D-01

 Vector    7  Occ=0.000000D+00  E=-2.618653D-02

 Vector    8  Occ=0.000000D+00  E=-1.295460D-02

 Vector    9  Occ=0.000000D+00  E= 2.854154D-01

 Vector   10  Occ=0.000000D+00  E= 4.026180D-01

 Vector   11  Occ=0.000000D+00  E= 6.239170D-01

 Vector   12  Occ=0.000000D+00  E= 7.162681D-01

 Vector   13  Occ=0.000000D+00  E= 7.777385D-01

 Vector   14  Occ=0.000000D+00  E= 8.263417D-01

 Vector   15  Occ=0.000000D+00  E= 8.527544D-01

       Multipole analysis of the density wrt the origin
       ------------------------------------------------

     L   x y z        total         open         nuclear
     -   - - -        -----         ----         -------
     0   0 0 0     -0.000000      0.000000     10.000000

     1   1 0 0      0.585266      0.000000     -0.000000
     1   0 1 0     -0.023125      0.000000      0.000000
     1   0 0 1      0.000000      0.000000      0.000000

     2   2 0 0     -4.495579      0.000000      2.679864
     2   1 1 0     -0.687385      0.000000     -1.764373
     2   1 0 1     -0.000000      0.000000      0.000000
     2   0 2 0     -3.446772      0.000000     18.272186
     2   0 1 1     -0.000000      0.000000      0.000000

 CCSD total energy / hartree       =       -75.973583817760201
 Total times  cpu:       79.8s     wall:      119.0s
