============================== echo of input deck ==============================
 echo
 start H2O
 title "H2O"

 memory total 24 gb

 geometry units bohr
 symmetry c1
        O  0.00000000  0.00000000  0.00000000
        H  0.00000000  4.4795835  0.00000000
        H  1.72558000 -0.64860000  0.00000000
 end

 basis spherical
   * library cc-pVTZ
 end

 mcscf
   active  8
   actelec 10
   multiplicity 1
   maxiter 40
   vectors input h2o.mos
   vectors output h2o.mos
 end

 task mcscf

 scf
   vectors input h2o.mos
   vectors output h2o-trash.mos
   noscf
 end

 tce
   2eorb
   2emet 13
   ccsd
   maxiter 300
 end

 set tce:print_integrals T
 set tce:qorb 8
 set tce:qela 5
 set tce:qelb 5

# set tce:qducc T
# set tce:nactv 3
# set tce:nonhf T
# set tce:ducc_model 6

 set tce:printtol 0.02

 task tce
================================================================================

 Output coordinates in a.u. (scale by  1.000000000 to convert to a.u.)

  No.       Tag          Charge          X              Y              Z
 ---- ---------------- ---------- -------------- -------------- --------------
    1 O                    8.0000    -0.17255800    -0.38309835     0.00000000
    2 H                    1.0000    -0.17255800     4.09648515     0.00000000
    3 H                    1.0000     1.55302200    -1.03169835     0.00000000

 Vector    1  Occ=1.999992D+00  E=-2.061141D+01  Symmetry=a

 Vector    2  Occ=1.998746D+00  E=-1.306892D+00  Symmetry=a

 Vector    3  Occ=1.985040D+00  E=-6.721730D-01  Symmetry=a

 Vector    4  Occ=1.974664D+00  E=-5.490037D-01  Symmetry=a

 Vector    5  Occ=1.361835D+00  E=-3.748146D-01  Symmetry=a

 Vector    6  Occ=6.385121D-01  E=-1.950363D-01  Symmetry=a

 Vector    7  Occ=2.644391D-02  E=-2.617456D-02  Symmetry=a

 Vector    8  Occ=1.476623D-02  E=-1.292227D-02  Symmetry=a

 Vector    9  Occ=0.000000D+00  E= 2.841374D-01  Symmetry=a

 Vector   10  Occ=0.000000D+00  E= 4.050213D-01  Symmetry=a

 Vector   11  Occ=0.000000D+00  E= 6.256671D-01  Symmetry=a

 Vector   12  Occ=0.000000D+00  E= 7.076250D-01  Symmetry=a

 Vector   13  Occ=0.000000D+00  E= 7.789505D-01  Symmetry=a

 Vector   14  Occ=0.000000D+00  E= 8.247192D-01  Symmetry=a

 Vector   15  Occ=0.000000D+00  E= 8.496945D-01  Symmetry=a

 Vector   16  Occ=0.000000D+00  E= 9.025995D-01  Symmetry=a

 Vector   17  Occ=0.000000D+00  E= 9.797390D-01  Symmetry=a

 Vector   18  Occ=0.000000D+00  E= 1.244889D+00  Symmetry=a

         Total SCF energy =    -75.743824525722

 Vector    2  Occ=2.000000D+00  E=-1.306892D+00

 Vector    3  Occ=2.000000D+00  E=-6.721730D-01

 Vector    4  Occ=2.000000D+00  E=-5.490037D-01

 Vector    5  Occ=2.000000D+00  E=-3.748146D-01

 Vector    6  Occ=0.000000D+00  E=-1.950363D-01

 Vector    7  Occ=0.000000D+00  E=-2.617456D-02

 Vector    8  Occ=0.000000D+00  E=-1.292227D-02

 Vector    9  Occ=0.000000D+00  E= 2.841374D-01

 Vector   10  Occ=0.000000D+00  E= 4.050213D-01

 Vector   11  Occ=0.000000D+00  E= 6.256671D-01

 Vector   12  Occ=0.000000D+00  E= 7.076250D-01

 Vector   13  Occ=0.000000D+00  E= 7.789505D-01

 Vector   14  Occ=0.000000D+00  E= 8.247192D-01

 Vector   15  Occ=0.000000D+00  E= 8.496945D-01

       Multipole analysis of the density wrt the origin
       ------------------------------------------------

     L   x y z        total         open         nuclear
     -   - - -        -----         ----         -------
     0   0 0 0     -0.000000      0.000000     10.000000

     1   1 0 0      0.587223      0.000000     -0.000000
     1   0 1 0     -0.039492      0.000000      0.000000
     1   0 0 1      0.000000      0.000000      0.000000

     2   2 0 0     -4.491891      0.000000      2.679864
     2   1 1 0     -0.679469      0.000000     -1.780278
     2   1 0 1     -0.000000      0.000000      0.000000
     2   0 2 0     -3.492185      0.000000     19.019707
     2   0 1 1     -0.000000      0.000000      0.000000

 CCSD total energy / hartree       =       -75.972442491185660
 Total times  cpu:       71.4s     wall:      105.8s
