============================== echo of input deck ==============================
 echo
 start H2O
 title "H2O"

 memory total 24 gb

 geometry units bohr
 symmetry c1
        O  0.00000000  0.00000000  0.00000000
        H  0.00000000  4.498018  0.00000000
        H  1.72558000 -0.64860000  0.00000000
 end

 basis spherical
   * library cc-pVTZ
 end

 mcscf
   active  8
   actelec 10
   multiplicity 1
   maxiter 40
   vectors input h2o.mos
   vectors output h2o.mos
 end

 task mcscf

 scf
   vectors input h2o.mos
   vectors output h2o-trash.mos
   noscf
 end

 tce
   2eorb
   2emet 13
   ccsd
   maxiter 300
 end

 set tce:print_integrals T
 set tce:qorb 8
 set tce:qela 5
 set tce:qelb 5

# set tce:qducc T
# set tce:nactv 3
# set tce:nonhf T
# set tce:ducc_model 6

 set tce:printtol 0.02

 task tce
================================================================================

 Output coordinates in a.u. (scale by  1.000000000 to convert to a.u.)

  No.       Tag          Charge          X              Y              Z
 ---- ---------------- ---------- -------------- -------------- --------------
    1 O                    8.0000    -0.17255800    -0.38494180     0.00000000
    2 H                    1.0000    -0.17255800     4.11307620     0.00000000
    3 H                    1.0000     1.55302200    -1.03354180     0.00000000

 Vector    1  Occ=1.999992D+00  E=-2.061143D+01  Symmetry=a

 Vector    2  Occ=1.998752D+00  E=-1.306935D+00  Symmetry=a

 Vector    3  Occ=1.985059D+00  E=-6.722166D-01  Symmetry=a

 Vector    4  Occ=1.974671D+00  E=-5.490616D-01  Symmetry=a

 Vector    5  Occ=1.356593D+00  E=-3.737576D-01  Symmetry=a

 Vector    6  Occ=6.437443D-01  E=-1.961495D-01  Symmetry=a

 Vector    7  Occ=2.643862D-02  E=-2.617225D-02  Symmetry=a

 Vector    8  Occ=1.475076D-02  E=-1.291630D-02  Symmetry=a

 Vector    9  Occ=0.000000D+00  E= 2.838895D-01  Symmetry=a

 Vector   10  Occ=0.000000D+00  E= 4.054827D-01  Symmetry=a

 Vector   11  Occ=0.000000D+00  E= 6.260155D-01  Symmetry=a

 Vector   12  Occ=0.000000D+00  E= 7.060425D-01  Symmetry=a

 Vector   13  Occ=0.000000D+00  E= 7.791939D-01  Symmetry=a

 Vector   14  Occ=0.000000D+00  E= 8.243558D-01  Symmetry=a

 Vector   15  Occ=0.000000D+00  E= 8.491503D-01  Symmetry=a

 Vector   16  Occ=0.000000D+00  E= 9.020996D-01  Symmetry=a

 Vector   17  Occ=0.000000D+00  E= 9.801174D-01  Symmetry=a

 Vector   18  Occ=0.000000D+00  E= 1.242157D+00  Symmetry=a

         Total SCF energy =    -75.742422684256

 Vector    2  Occ=2.000000D+00  E=-1.306935D+00

 Vector    3  Occ=2.000000D+00  E=-6.722166D-01

 Vector    4  Occ=2.000000D+00  E=-5.490616D-01

 Vector    5  Occ=2.000000D+00  E=-3.737576D-01

 Vector    6  Occ=0.000000D+00  E=-1.961495D-01

 Vector    7  Occ=0.000000D+00  E=-2.617225D-02

 Vector    8  Occ=0.000000D+00  E=-1.291630D-02

 Vector    9  Occ=0.000000D+00  E= 2.838895D-01

 Vector   10  Occ=0.000000D+00  E= 4.054827D-01

 Vector   11  Occ=0.000000D+00  E= 6.260155D-01

 Vector   12  Occ=0.000000D+00  E= 7.060425D-01

 Vector   13  Occ=0.000000D+00  E= 7.791939D-01

 Vector   14  Occ=0.000000D+00  E= 8.243558D-01

 Vector   15  Occ=0.000000D+00  E= 8.491503D-01

       Multipole analysis of the density wrt the origin
       ------------------------------------------------

     L   x y z        total         open         nuclear
     -   - - -        -----         ----         -------
     0   0 0 0     -0.000000      0.000000     10.000000

     1   1 0 0      0.587606      0.000000     -0.000000
     1   0 1 0     -0.042616      0.000000      0.000000
     1   0 0 1      0.000000      0.000000      0.000000

     2   2 0 0     -4.491122      0.000000      2.679864
     2   1 1 0     -0.677981      0.000000     -1.783459
     2   1 0 1     -0.000000      0.000000      0.000000
     2   0 2 0     -3.501094      0.000000     19.171046
     2   0 1 1     -0.000000      0.000000      0.000000

 CCSD total energy / hartree       =       -75.972234997781840
 Total times  cpu:       71.7s     wall:      105.7s
