============================== echo of input deck ==============================
 echo
 start H2O
 title "H2O"

 memory total 24 gb

 geometry units bohr
 symmetry c1
        O  0.00000000  0.00000000  0.00000000
        H  0.00000000  4.5164525  0.00000000
        H  1.72558000 -0.64860000  0.00000000
 end

 basis spherical
   * library cc-pVTZ
 end

 mcscf
   active  8
   actelec 10
   multiplicity 1
   maxiter 40
   vectors input h2o.mos
   vectors output h2o.mos
 end

 task mcscf

 scf
   vectors input h2o.mos
   vectors output h2o-trash.mos
   noscf
 end

 tce
   2eorb
   2emet 13
   ccsd
   maxiter 300
 end

 set tce:print_integrals T
 set tce:qorb 8
 set tce:qela 5
 set tce:qelb 5

# set tce:qducc T
# set tce:nactv 3
# set tce:nonhf T
# set tce:ducc_model 6

 set tce:printtol 0.02

 task tce
================================================================================

 Output coordinates in a.u. (scale by  1.000000000 to convert to a.u.)

  No.       Tag          Charge          X              Y              Z
 ---- ---------------- ---------- -------------- -------------- --------------
    1 O                    8.0000    -0.17255800    -0.38678525     0.00000000
    2 H                    1.0000    -0.17255800     4.12966725     0.00000000
    3 H                    1.0000     1.55302200    -1.03538525     0.00000000

 Vector    1  Occ=1.999992D+00  E=-2.061142D+01  Symmetry=a

 Vector    2  Occ=1.998757D+00  E=-1.306970D+00  Symmetry=a

 Vector    3  Occ=1.985077D+00  E=-6.722435D-01  Symmetry=a

 Vector    4  Occ=1.974677D+00  E=-5.491036D-01  Symmetry=a

 Vector    5  Occ=1.351408D+00  E=-3.727636D-01  Symmetry=a

 Vector    6  Occ=6.489199D-01  E=-1.972021D-01  Symmetry=a

 Vector    7  Occ=2.643335D-02  E=-2.617238D-02  Symmetry=a

 Vector    8  Occ=1.473565D-02  E=-1.291335D-02  Symmetry=a

 Vector    9  Occ=0.000000D+00  E= 2.837287D-01  Symmetry=a

 Vector   10  Occ=0.000000D+00  E= 4.059291D-01  Symmetry=a

 Vector   11  Occ=0.000000D+00  E= 6.263287D-01  Symmetry=a

 Vector   12  Occ=0.000000D+00  E= 7.044616D-01  Symmetry=a

 Vector   13  Occ=0.000000D+00  E= 7.794202D-01  Symmetry=a

 Vector   14  Occ=0.000000D+00  E= 8.239579D-01  Symmetry=a

 Vector   15  Occ=0.000000D+00  E= 8.486307D-01  Symmetry=a

 Vector   16  Occ=0.000000D+00  E= 9.016057D-01  Symmetry=a

 Vector   17  Occ=0.000000D+00  E= 9.804977D-01  Symmetry=a

 Vector   18  Occ=0.000000D+00  E= 1.239399D+00  Symmetry=a

         Total SCF energy =    -75.741034443776

 Vector    2  Occ=2.000000D+00  E=-1.306970D+00

 Vector    3  Occ=2.000000D+00  E=-6.722435D-01

 Vector    4  Occ=2.000000D+00  E=-5.491036D-01

 Vector    5  Occ=2.000000D+00  E=-3.727636D-01

 Vector    6  Occ=0.000000D+00  E=-1.972021D-01

 Vector    7  Occ=0.000000D+00  E=-2.617238D-02

 Vector    8  Occ=0.000000D+00  E=-1.291335D-02

 Vector    9  Occ=0.000000D+00  E= 2.837287D-01

 Vector   10  Occ=0.000000D+00  E= 4.059291D-01

 Vector   11  Occ=0.000000D+00  E= 6.263287D-01

 Vector   12  Occ=0.000000D+00  E= 7.044616D-01

 Vector   13  Occ=0.000000D+00  E= 7.794202D-01

 Vector   14  Occ=0.000000D+00  E= 8.239579D-01

 Vector   15  Occ=0.000000D+00  E= 8.486307D-01

       Multipole analysis of the density wrt the origin
       ------------------------------------------------

     L   x y z        total         open         nuclear
     -   - - -        -----         ----         -------
     0   0 0 0     -0.000000      0.000000     10.000000

     1   1 0 0      0.587991      0.000000     -0.000000
     1   0 1 0     -0.045696      0.000000      0.000000
     1   0 0 1      0.000000      0.000000      0.000000

     2   2 0 0     -4.490359      0.000000      2.679864
     2   1 1 0     -0.676489      0.000000     -1.786640
     2   1 0 1     -0.000000      0.000000      0.000000
     2   0 2 0     -3.509939      0.000000     19.322997
     2   0 1 1     -0.000000      0.000000      0.000000

 CCSD total energy / hartree       =       -75.972033994024372
 Total times  cpu:       83.3s     wall:      118.0s
