============================== echo of input deck ==============================
 echo
 start H2O
 title "H2O"

 memory total 24 gb

 geometry units bohr
 symmetry c1
        O  0.00000000  0.00000000  0.00000000
        H  0.00000000  4.534887  0.00000000
        H  1.72558000 -0.64860000  0.00000000
 end

 basis spherical
   * library cc-pVTZ
 end

 mcscf
   active  8
   actelec 10
   multiplicity 1
   maxiter 40
   vectors input h2o.mos
   vectors output h2o.mos
 end

 task mcscf

 scf
   vectors input h2o.mos
   vectors output h2o-trash.mos
   noscf
 end

 tce
   2eorb
   2emet 13
   ccsd
   maxiter 300
 end

 set tce:print_integrals T
 set tce:qorb 8
 set tce:qela 5
 set tce:qelb 5

# set tce:qducc T
# set tce:nactv 3
# set tce:nonhf T
# set tce:ducc_model 6

 set tce:printtol 0.02

 task tce
================================================================================

 Output coordinates in a.u. (scale by  1.000000000 to convert to a.u.)

  No.       Tag          Charge          X              Y              Z
 ---- ---------------- ---------- -------------- -------------- --------------
    1 O                    8.0000    -0.17255800    -0.38862870     0.00000000
    2 H                    1.0000    -0.17255800     4.14625830     0.00000000
    3 H                    1.0000     1.55302200    -1.03722870     0.00000000

 Vector    1  Occ=1.999992D+00  E=-2.061146D+01  Symmetry=a

 Vector    2  Occ=1.998762D+00  E=-1.307013D+00  Symmetry=a

 Vector    3  Occ=1.985094D+00  E=-6.722938D-01  Symmetry=a

 Vector    4  Occ=1.974683D+00  E=-5.491662D-01  Symmetry=a

 Vector    5  Occ=1.346295D+00  E=-3.717047D-01  Symmetry=a

 Vector    6  Occ=6.540248D-01  E=-1.983142D-01  Symmetry=a

 Vector    7  Occ=2.642866D-02  E=-2.616829D-02  Symmetry=a

 Vector    8  Occ=1.472142D-02  E=-1.290548D-02  Symmetry=a

 Vector    9  Occ=0.000000D+00  E= 2.834211D-01  Symmetry=a

 Vector   10  Occ=0.000000D+00  E= 4.063824D-01  Symmetry=a

 Vector   11  Occ=0.000000D+00  E= 6.267008D-01  Symmetry=a

 Vector   12  Occ=0.000000D+00  E= 7.030196D-01  Symmetry=a

 Vector   13  Occ=0.000000D+00  E= 7.796764D-01  Symmetry=a

 Vector   14  Occ=0.000000D+00  E= 8.235823D-01  Symmetry=a

 Vector   15  Occ=0.000000D+00  E= 8.481324D-01  Symmetry=a

 Vector   16  Occ=0.000000D+00  E= 9.011195D-01  Symmetry=a

 Vector   17  Occ=0.000000D+00  E= 9.808481D-01  Symmetry=a

 Vector   18  Occ=0.000000D+00  E= 1.236636D+00  Symmetry=a

         Total SCF energy =    -75.739657140538

 Vector    2  Occ=2.000000D+00  E=-1.307013D+00

 Vector    3  Occ=2.000000D+00  E=-6.722938D-01

 Vector    4  Occ=2.000000D+00  E=-5.491662D-01

 Vector    5  Occ=2.000000D+00  E=-3.717047D-01

 Vector    6  Occ=0.000000D+00  E=-1.983142D-01

 Vector    7  Occ=0.000000D+00  E=-2.616829D-02

 Vector    8  Occ=0.000000D+00  E=-1.290548D-02

 Vector    9  Occ=0.000000D+00  E= 2.834211D-01

 Vector   10  Occ=0.000000D+00  E= 4.063824D-01

 Vector   11  Occ=0.000000D+00  E= 6.267008D-01

 Vector   12  Occ=0.000000D+00  E= 7.030196D-01

 Vector   13  Occ=0.000000D+00  E= 7.796764D-01

 Vector   14  Occ=0.000000D+00  E= 8.235823D-01

 Vector   15  Occ=0.000000D+00  E= 8.481324D-01

       Multipole analysis of the density wrt the origin
       ------------------------------------------------

     L   x y z        total         open         nuclear
     -   - - -        -----         ----         -------
     0   0 0 0     -0.000000      0.000000     10.000000

     1   1 0 0      0.588353      0.000000     -0.000000
     1   0 1 0     -0.048707      0.000000      0.000000
     1   0 0 1      0.000000      0.000000      0.000000

     2   2 0 0     -4.489568      0.000000      2.679864
     2   1 1 0     -0.675122      0.000000     -1.789821
     2   1 0 1     -0.000000      0.000000      0.000000
     2   0 2 0     -3.518683      0.000000     19.475559
     2   0 1 1     -0.000000      0.000000      0.000000

 CCSD total energy / hartree       =       -75.971839234426497
 Total times  cpu:       79.9s     wall:      118.0s
