============================== echo of input deck ==============================
 echo
 start H2O
 title "H2O"

 memory total 24 gb

 geometry units bohr
 symmetry c1
        O  0.00000000  0.00000000  0.00000000
        H  0.00000000  4.5901905  0.00000000
        H  1.72558000 -0.64860000  0.00000000
 end

 basis spherical
   * library cc-pVTZ
 end

 mcscf
   active  8
   actelec 10
   multiplicity 1
   maxiter 40
   vectors input h2o.mos
   vectors output h2o.mos
 end

 task mcscf

 scf
   vectors input h2o.mos
   vectors output h2o-trash.mos
   noscf
 end

 tce
   2eorb
   2emet 13
   ccsd
   maxiter 300
 end

 set tce:print_integrals T
 set tce:qorb 8
 set tce:qela 5
 set tce:qelb 5

# set tce:qducc T
# set tce:nactv 3
# set tce:nonhf T
# set tce:ducc_model 6

 set tce:printtol 0.02

 task tce
================================================================================

 Output coordinates in a.u. (scale by  1.000000000 to convert to a.u.)

  No.       Tag          Charge          X              Y              Z
 ---- ---------------- ---------- -------------- -------------- --------------
    1 O                    8.0000    -0.17255800    -0.39415905     0.00000000
    2 H                    1.0000    -0.17255800     4.19603145     0.00000000
    3 H                    1.0000     1.55302200    -1.04275905     0.00000000

 Vector    1  Occ=1.999992D+00  E=-2.061150D+01  Symmetry=a

 Vector    2  Occ=1.998776D+00  E=-1.307120D+00  Symmetry=a

 Vector    3  Occ=1.985143D+00  E=-6.724034D-01  Symmetry=a

 Vector    4  Occ=1.974702D+00  E=-5.493125D-01  Symmetry=a

 Vector    5  Occ=1.331278D+00  E=-3.687214D-01  Symmetry=a

 Vector    6  Occ=6.690153D-01  E=-2.014611D-01  Symmetry=a

 Vector    7  Occ=2.641413D-02  E=-2.616122D-02  Symmetry=a

 Vector    8  Occ=1.467996D-02  E=-1.288869D-02  Symmetry=a

 Vector    9  Occ=0.000000D+00  E= 2.826885D-01  Symmetry=a

 Vector   10  Occ=0.000000D+00  E= 4.076796D-01  Symmetry=a

 Vector   11  Occ=0.000000D+00  E= 6.277344D-01  Symmetry=a

 Vector   12  Occ=0.000000D+00  E= 6.989076D-01  Symmetry=a

 Vector   13  Occ=0.000000D+00  E= 7.804054D-01  Symmetry=a

 Vector   14  Occ=0.000000D+00  E= 8.223308D-01  Symmetry=a

 Vector   15  Occ=0.000000D+00  E= 8.467779D-01  Symmetry=a

 Vector   16  Occ=0.000000D+00  E= 8.997002D-01  Symmetry=a

 Vector   17  Occ=0.000000D+00  E= 9.818524D-01  Symmetry=a

 Vector   18  Occ=0.000000D+00  E= 1.228253D+00  Symmetry=a

         Total SCF energy =    -75.735602975819

 Vector    2  Occ=2.000000D+00  E=-1.307120D+00

 Vector    3  Occ=2.000000D+00  E=-6.724034D-01

 Vector    4  Occ=2.000000D+00  E=-5.493125D-01

 Vector    5  Occ=2.000000D+00  E=-3.687214D-01

 Vector    6  Occ=0.000000D+00  E=-2.014611D-01

 Vector    7  Occ=0.000000D+00  E=-2.616122D-02

 Vector    8  Occ=0.000000D+00  E=-1.288869D-02

 Vector    9  Occ=0.000000D+00  E= 2.826885D-01

 Vector   10  Occ=0.000000D+00  E= 4.076796D-01

 Vector   11  Occ=0.000000D+00  E= 6.277344D-01

 Vector   12  Occ=0.000000D+00  E= 6.989076D-01

 Vector   13  Occ=0.000000D+00  E= 7.804054D-01

 Vector   14  Occ=0.000000D+00  E= 8.223308D-01

 Vector   15  Occ=0.000000D+00  E= 8.467779D-01

       Multipole analysis of the density wrt the origin
       ------------------------------------------------

     L   x y z        total         open         nuclear
     -   - - -        -----         ----         -------
     0   0 0 0     -0.000000      0.000000     10.000000

     1   1 0 0      0.589468      0.000000     -0.000000
     1   0 1 0     -0.057519      0.000000     -0.000000
     1   0 0 1      0.000000      0.000000      0.000000

     2   2 0 0     -4.487156      0.000000      2.679864
     2   1 1 0     -0.671019      0.000000     -1.799364
     2   1 0 1     -0.000000      0.000000      0.000000
     2   0 2 0     -3.544731      0.000000     19.936917
     2   0 1 1     -0.000000      0.000000      0.000000

 CCSD total energy / hartree       =       -75.971290996309648
 Total times  cpu:       78.7s     wall:      116.1s
