============================== echo of input deck ==============================
 echo
 start H2O
 title "H2O"

 memory total 24 gb

 geometry units bohr
 symmetry c1
        O  0.00000000  0.00000000  0.00000000
        H  0.00000000  4.6639285  0.00000000
        H  1.72558000 -0.64860000  0.00000000
 end

 basis spherical
   * library cc-pVTZ
 end

 mcscf
   active  8
   actelec 10
   multiplicity 1
   maxiter 40
   vectors input h2o.mos
   vectors output h2o.mos
 end

 task mcscf

 scf
   vectors input h2o.mos
   vectors output h2o-trash.mos
   noscf
 end

 tce
   2eorb
   2emet 13
   ccsd
   maxiter 300
 end

 set tce:print_integrals T
 set tce:qorb 8
 set tce:qela 5
 set tce:qelb 5

# set tce:qducc T
# set tce:nactv 3
# set tce:nonhf T
# set tce:ducc_model 6

 set tce:printtol 0.02

 task tce
================================================================================

 Output coordinates in a.u. (scale by  1.000000000 to convert to a.u.)

  No.       Tag          Charge          X              Y              Z
 ---- ---------------- ---------- -------------- -------------- --------------
    1 O                    8.0000    -0.17255800    -0.40153285     0.00000000
    2 H                    1.0000    -0.17255800     4.26239565     0.00000000
    3 H                    1.0000     1.55302200    -1.05013285     0.00000000

 Vector    1  Occ=1.999992D+00  E=-2.061153D+01  Symmetry=a

 Vector    2  Occ=1.998793D+00  E=-1.307236D+00  Symmetry=a

 Vector    3  Occ=1.985202D+00  E=-6.725203D-01  Symmetry=a

 Vector    4  Occ=1.974724D+00  E=-5.494726D-01  Symmetry=a

 Vector    5  Occ=1.312096D+00  E=-3.649847D-01  Symmetry=a

 Vector    6  Occ=6.881663D-01  E=-2.054097D-01  Symmetry=a

 Vector    7  Occ=2.639679D-02  E=-2.615300D-02  Symmetry=a

 Vector    8  Occ=1.463053D-02  E=-1.286909D-02  Symmetry=a

 Vector    9  Occ=0.000000D+00  E= 2.817702D-01  Symmetry=a

 Vector   10  Occ=0.000000D+00  E= 4.092878D-01  Symmetry=a

 Vector   11  Occ=0.000000D+00  E= 6.290647D-01  Symmetry=a

 Vector   12  Occ=0.000000D+00  E= 6.941677D-01  Symmetry=a

 Vector   13  Occ=0.000000D+00  E= 7.813558D-01  Symmetry=a

 Vector   14  Occ=0.000000D+00  E= 8.204781D-01  Symmetry=a

 Vector   15  Occ=0.000000D+00  E= 8.452800D-01  Symmetry=a

 Vector   16  Occ=0.000000D+00  E= 8.979055D-01  Symmetry=a

 Vector   17  Occ=0.000000D+00  E= 9.830044D-01  Symmetry=a

 Vector   18  Occ=0.000000D+00  E= 1.216960D+00  Symmetry=a

         Total SCF energy =    -75.730370476352

 Vector    2  Occ=2.000000D+00  E=-1.307236D+00

 Vector    3  Occ=2.000000D+00  E=-6.725203D-01

 Vector    4  Occ=2.000000D+00  E=-5.494726D-01

 Vector    5  Occ=2.000000D+00  E=-3.649847D-01

 Vector    6  Occ=0.000000D+00  E=-2.054097D-01

 Vector    7  Occ=0.000000D+00  E=-2.615300D-02

 Vector    8  Occ=0.000000D+00  E=-1.286909D-02

 Vector    9  Occ=0.000000D+00  E= 2.817702D-01

 Vector   10  Occ=0.000000D+00  E= 4.092878D-01

 Vector   11  Occ=0.000000D+00  E= 6.290647D-01

 Vector   12  Occ=0.000000D+00  E= 6.941677D-01

 Vector   13  Occ=0.000000D+00  E= 7.813558D-01

 Vector   14  Occ=0.000000D+00  E= 8.204781D-01

 Vector   15  Occ=0.000000D+00  E= 8.452800D-01

       Multipole analysis of the density wrt the origin
       ------------------------------------------------

     L   x y z        total         open         nuclear
     -   - - -        -----         ----         -------
     0   0 0 0     -0.000000      0.000000     10.000000

     1   1 0 0      0.590898      0.000000     -0.000000
     1   0 1 0     -0.068616      0.000000      0.000000
     1   0 0 1      0.000000      0.000000      0.000000

     2   2 0 0     -4.483870      0.000000      2.679864
     2   1 1 0     -0.666018      0.000000     -1.812088
     2   1 0 1     -0.000000      0.000000      0.000000
     2   0 2 0     -3.578525      0.000000     20.560625
     2   0 1 1     -0.000000      0.000000      0.000000

 CCSD total energy / hartree       =       -75.970637625785997
 Total times  cpu:       88.1s     wall:      130.7s
