============================== echo of input deck ==============================
 echo
 start H2O
 title "H2O"

 memory total 24 gb

 geometry units bohr
 symmetry c1
        O  0.00000000  0.00000000  0.00000000
        H  0.00000000  4.829839  0.00000000
        H  1.72558000 -0.64860000  0.00000000
 end

 basis spherical
   * library cc-pVTZ
 end

 mcscf
   active  8
   actelec 10
   multiplicity 1
   maxiter 40
   vectors input h2o.mos
   vectors output h2o.mos
 end

 task mcscf

 scf
   vectors input h2o.mos
   vectors output h2o-trash.mos
   noscf
 end

 tce
   2eorb
   2emet 13
   ccsd
   maxiter 300
 end

 set tce:print_integrals T
 set tce:qorb 8
 set tce:qela 5
 set tce:qelb 5

# set tce:qducc T
# set tce:nactv 3
# set tce:nonhf T
# set tce:ducc_model 6

 set tce:printtol 0.02

 task tce
================================================================================

 Output coordinates in a.u. (scale by  1.000000000 to convert to a.u.)

  No.       Tag          Charge          X              Y              Z
 ---- ---------------- ---------- -------------- -------------- --------------
    1 O                    8.0000    -0.17255800    -0.41812390     0.00000000
    2 H                    1.0000    -0.17255800     4.41171510     0.00000000
    3 H                    1.0000     1.55302200    -1.06672390     0.00000000

 Vector    1  Occ=1.999992D+00  E=-2.061150D+01  Symmetry=a

 Vector    2  Occ=1.998826D+00  E=-1.307415D+00  Symmetry=a

 Vector    3  Occ=1.985310D+00  E=-6.727003D-01  Symmetry=a

 Vector    4  Occ=1.974765D+00  E=-5.497281D-01  Symmetry=a

 Vector    5  Occ=1.272347D+00  E=-3.574842D-01  Symmetry=a

 Vector    6  Occ=7.278556D-01  E=-2.133538D-01  Symmetry=a

 Vector    7  Occ=2.636416D-02  E=-2.613649D-02  Symmetry=a

 Vector    8  Occ=1.453916D-02  E=-1.283204D-02  Symmetry=a

 Vector    9  Occ=0.000000D+00  E= 2.798292D-01  Symmetry=a

 Vector   10  Occ=0.000000D+00  E= 4.123241D-01  Symmetry=a

 Vector   11  Occ=0.000000D+00  E= 6.318426D-01  Symmetry=a

 Vector   12  Occ=0.000000D+00  E= 6.867369D-01  Symmetry=a

 Vector   13  Occ=0.000000D+00  E= 7.833771D-01  Symmetry=a

 Vector   14  Occ=0.000000D+00  E= 8.158155D-01  Symmetry=a

 Vector   15  Occ=0.000000D+00  E= 8.429528D-01  Symmetry=a

 Vector   16  Occ=0.000000D+00  E= 8.942896D-01  Symmetry=a

 Vector   17  Occ=0.000000D+00  E= 9.845430D-01  Symmetry=a

 Vector   18  Occ=0.000000D+00  E= 1.191692D+00  Symmetry=a

         Total SCF energy =    -75.719297428903

 Vector    2  Occ=2.000000D+00  E=-1.307415D+00

 Vector    3  Occ=2.000000D+00  E=-6.727003D-01

 Vector    4  Occ=2.000000D+00  E=-5.497281D-01

 Vector    5  Occ=2.000000D+00  E=-3.574842D-01

 Vector    6  Occ=0.000000D+00  E=-2.133538D-01

 Vector    7  Occ=0.000000D+00  E=-2.613649D-02

 Vector    8  Occ=0.000000D+00  E=-1.283204D-02

 Vector    9  Occ=0.000000D+00  E= 2.798292D-01

 Vector   10  Occ=0.000000D+00  E= 4.123241D-01

 Vector   11  Occ=0.000000D+00  E= 6.318426D-01

 Vector   12  Occ=0.000000D+00  E= 6.867369D-01

 Vector   13  Occ=0.000000D+00  E= 7.833771D-01

 Vector   14  Occ=0.000000D+00  E= 8.158155D-01

 Vector   15  Occ=0.000000D+00  E= 8.429528D-01

       Multipole analysis of the density wrt the origin
       ------------------------------------------------

     L   x y z        total         open         nuclear
     -   - - -        -----         ----         -------
     0   0 0 0     -0.000000      0.000000     10.000000

     1   1 0 0      0.593914      0.000000     -0.000000
     1   0 1 0     -0.091109      0.000000      0.000000
     1   0 0 1      0.000000      0.000000      0.000000

     2   2 0 0     -4.476278      0.000000      2.679864
     2   1 1 0     -0.656564      0.000000     -1.840717
     2   1 0 1     -0.000000      0.000000      0.000000
     2   0 2 0     -3.650864      0.000000     21.999751
     2   0 1 1     -0.000000      0.000000      0.000000

 CCSD total energy / hartree       =       -75.969445131891007
 Total times  cpu:      116.6s     wall:      171.3s
