============================== echo of input deck ==============================
 echo
 start H2O
 title "H2O"

 memory total 24 gb

 geometry units bohr
 symmetry c1
        O  0.00000000  0.00000000  0.00000000
        H  0.00000000  4.940446  0.00000000
        H  1.72558000 -0.64860000  0.00000000
 end

 basis spherical
   * library cc-pVTZ
 end

 mcscf
   active  8
   actelec 10
   multiplicity 1
   maxiter 40
   vectors input h2o.mos
   vectors output h2o.mos
 end

 task mcscf

 scf
   vectors input h2o.mos
   vectors output h2o-trash.mos
   noscf
 end

 tce
   2eorb
   2emet 13
   ccsd
   maxiter 300
 end

 set tce:print_integrals T
 set tce:qorb 8
 set tce:qela 5
 set tce:qelb 5

# set tce:qducc T
# set tce:nactv 3
# set tce:nonhf T
# set tce:ducc_model 6

 set tce:printtol 0.02

 task tce
================================================================================

 Output coordinates in a.u. (scale by  1.000000000 to convert to a.u.)

  No.       Tag          Charge          X              Y              Z
 ---- ---------------- ---------- -------------- -------------- --------------
    1 O                    8.0000    -0.17255800    -0.42918460     0.00000000
    2 H                    1.0000    -0.17255800     4.51126140     0.00000000
    3 H                    1.0000     1.55302200    -1.07778460     0.00000000

 Vector    1  Occ=1.999992D+00  E=-2.061145D+01  Symmetry=a

 Vector    2  Occ=1.998844D+00  E=-1.307486D+00  Symmetry=a

 Vector    3  Occ=1.985368D+00  E=-6.727717D-01  Symmetry=a

 Vector    4  Occ=1.974787D+00  E=-5.498363D-01  Symmetry=a

 Vector    5  Occ=1.248380D+00  E=-3.531408D-01  Symmetry=a

 Vector    6  Occ=7.517911D-01  E=-2.179646D-01  Symmetry=a

 Vector    7  Occ=2.634664D-02  E=-2.612689D-02  Symmetry=a

 Vector    8  Occ=1.449098D-02  E=-1.281192D-02  Symmetry=a

 Vector    9  Occ=0.000000D+00  E= 2.786220D-01  Symmetry=a

 Vector   10  Occ=0.000000D+00  E= 4.138331D-01  Symmetry=a

 Vector   11  Occ=0.000000D+00  E= 6.335177D-01  Symmetry=a

 Vector   12  Occ=0.000000D+00  E= 6.842161D-01  Symmetry=a

 Vector   13  Occ=0.000000D+00  E= 7.845998D-01  Symmetry=a

 Vector   14  Occ=0.000000D+00  E= 8.125893D-01  Symmetry=a

 Vector   15  Occ=0.000000D+00  E= 8.419459D-01  Symmetry=a

 Vector   16  Occ=0.000000D+00  E= 8.922088D-01  Symmetry=a

 Vector   17  Occ=0.000000D+00  E= 9.845164D-01  Symmetry=a

 Vector   18  Occ=0.000000D+00  E= 1.175520D+00  Symmetry=a

         Total SCF energy =    -75.712432153710

 Vector    2  Occ=2.000000D+00  E=-1.307486D+00

 Vector    3  Occ=2.000000D+00  E=-6.727717D-01

 Vector    4  Occ=2.000000D+00  E=-5.498363D-01

 Vector    5  Occ=2.000000D+00  E=-3.531408D-01

 Vector    6  Occ=0.000000D+00  E=-2.179646D-01

 Vector    7  Occ=0.000000D+00  E=-2.612689D-02

 Vector    8  Occ=0.000000D+00  E=-1.281192D-02

 Vector    9  Occ=0.000000D+00  E= 2.786220D-01

 Vector   10  Occ=0.000000D+00  E= 4.138331D-01

 Vector   11  Occ=0.000000D+00  E= 6.335177D-01

 Vector   12  Occ=0.000000D+00  E= 6.842161D-01

 Vector   13  Occ=0.000000D+00  E= 7.845998D-01

 Vector   14  Occ=0.000000D+00  E= 8.125893D-01

 Vector   15  Occ=0.000000D+00  E= 8.419459D-01

       Multipole analysis of the density wrt the origin
       ------------------------------------------------

     L   x y z        total         open         nuclear
     -   - - -        -----         ----         -------
     0   0 0 0     -0.000000      0.000000     10.000000

     1   1 0 0      0.595770      0.000000     -0.000000
     1   0 1 0     -0.104362      0.000000     -0.000000
     1   0 0 1      0.000000      0.000000      0.000000

     2   2 0 0     -4.471182      0.000000      2.679864
     2   1 1 0     -0.651583      0.000000     -1.859804
     2   1 0 1     -0.000000      0.000000      0.000000
     2   0 2 0     -3.696265      0.000000     22.986694
     2   0 1 1     -0.000000      0.000000      0.000000

 CCSD total energy / hartree       =       -75.968826788223367
 Total times  cpu:      107.7s     wall:      157.7s
