============================== echo of input deck ==============================
 echo
 start H2O
 title "H2O"

 memory total 24 gb

 geometry units bohr
 symmetry c1
        O  0.00000000  0.00000000  0.00000000
        H  0.00000000  5.014184  0.00000000
        H  1.72558000 -0.64860000  0.00000000
 end

 basis spherical
   * library cc-pVTZ
 end

 mcscf
   active  8
   actelec 10
   multiplicity 1
   maxiter 40
   vectors input h2o.mos
   vectors output h2o.mos
 end

 task mcscf

 scf
   vectors input h2o.mos
   vectors output h2o-trash.mos
   noscf
 end

 tce
   2eorb
   2emet 13
   ccsd
   maxiter 300
 end

 set tce:print_integrals T
 set tce:qorb 8
 set tce:qela 5
 set tce:qelb 5

# set tce:qducc T
# set tce:nactv 3
# set tce:nonhf T
# set tce:ducc_model 6

 set tce:printtol 0.02

 task tce
================================================================================

 Output coordinates in a.u. (scale by  1.000000000 to convert to a.u.)

  No.       Tag          Charge          X              Y              Z
 ---- ---------------- ---------- -------------- -------------- --------------
    1 O                    8.0000    -0.17255800    -0.43655840     0.00000000
    2 H                    1.0000    -0.17255800     4.57762560     0.00000000
    3 H                    1.0000     1.55302200    -1.08515840     0.00000000

 Vector    1  Occ=1.999992D+00  E=-2.061140D+01  Symmetry=a

 Vector    2  Occ=1.998854D+00  E=-1.307518D+00  Symmetry=a

 Vector    3  Occ=1.985401D+00  E=-6.728028D-01  Symmetry=a

 Vector    4  Occ=1.974800D+00  E=-5.498874D-01  Symmetry=a

 Vector    5  Occ=1.233472D+00  E=-3.505180D-01  Symmetry=a

 Vector    6  Occ=7.666798D-01  E=-2.207530D-01  Symmetry=a

 Vector    7  Occ=2.633653D-02  E=-2.612117D-02  Symmetry=a

 Vector    8  Occ=1.446353D-02  E=-1.280028D-02  Symmetry=a

 Vector    9  Occ=0.000000D+00  E= 2.778565D-01  Symmetry=a

 Vector   10  Occ=0.000000D+00  E= 4.145891D-01  Symmetry=a

 Vector   11  Occ=0.000000D+00  E= 6.345730D-01  Symmetry=a

 Vector   12  Occ=0.000000D+00  E= 6.835374D-01  Symmetry=a

 Vector   13  Occ=0.000000D+00  E= 7.853484D-01  Symmetry=a

 Vector   14  Occ=0.000000D+00  E= 8.104856D-01  Symmetry=a

 Vector   15  Occ=0.000000D+00  E= 8.414169D-01  Symmetry=a

 Vector   16  Occ=0.000000D+00  E= 8.909664D-01  Symmetry=a

 Vector   17  Occ=0.000000D+00  E= 9.839210D-01  Symmetry=a

 Vector   18  Occ=0.000000D+00  E= 1.165282D+00  Symmetry=a

         Total SCF energy =    -75.708074722819

 Vector    2  Occ=2.000000D+00  E=-1.307518D+00

 Vector    3  Occ=2.000000D+00  E=-6.728028D-01

 Vector    4  Occ=2.000000D+00  E=-5.498874D-01

 Vector    5  Occ=2.000000D+00  E=-3.505180D-01

 Vector    6  Occ=0.000000D+00  E=-2.207530D-01

 Vector    7  Occ=0.000000D+00  E=-2.612117D-02

 Vector    8  Occ=0.000000D+00  E=-1.280028D-02

 Vector    9  Occ=0.000000D+00  E= 2.778565D-01

 Vector   10  Occ=0.000000D+00  E= 4.145891D-01

 Vector   11  Occ=0.000000D+00  E= 6.345730D-01

 Vector   12  Occ=0.000000D+00  E= 6.835374D-01

 Vector   13  Occ=0.000000D+00  E= 7.853484D-01

 Vector   14  Occ=0.000000D+00  E= 8.104856D-01

 Vector   15  Occ=0.000000D+00  E= 8.414169D-01

       Multipole analysis of the density wrt the origin
       ------------------------------------------------

     L   x y z        total         open         nuclear
     -   - - -        -----         ----         -------
     0   0 0 0     -0.000000      0.000000     10.000000

     1   1 0 0      0.596939      0.000000     -0.000000
     1   0 1 0     -0.112496      0.000000      0.000000
     1   0 0 1      0.000000      0.000000      0.000000

     2   2 0 0     -4.467811      0.000000      2.679864
     2   1 1 0     -0.648819      0.000000     -1.872528
     2   1 0 1     -0.000000      0.000000      0.000000
     2   0 2 0     -3.725320      0.000000     23.656891
     2   0 1 1     -0.000000      0.000000      0.000000

 CCSD total energy / hartree       =       -75.968479075957461
 Total times  cpu:       99.5s     wall:      146.5s
