============================== echo of input deck ==============================
 echo
 start H2O
 title "H2O"

 memory total 24 gb

 geometry units bohr
 symmetry c1
        O  0.00000000  0.00000000  0.00000000
        H  0.00000000  5.087922  0.00000000
        H  1.72558000 -0.64860000  0.00000000
 end

 basis spherical
   * library cc-pVTZ
 end

 mcscf
   active  8
   actelec 10
   multiplicity 1
   maxiter 40
   vectors input h2o.mos
   vectors output h2o.mos
 end

 task mcscf

 scf
   vectors input h2o.mos
   vectors output h2o-trash.mos
   noscf
 end

 tce
   2eorb
   2emet 13
   ccsd
   maxiter 300
 end

 set tce:print_integrals T
 set tce:qorb 8
 set tce:qela 5
 set tce:qelb 5

# set tce:qducc T
# set tce:nactv 3
# set tce:nonhf T
# set tce:ducc_model 6

 set tce:printtol 0.02

 task tce
================================================================================

 Output coordinates in a.u. (scale by  1.000000000 to convert to a.u.)

  No.       Tag          Charge          X              Y              Z
 ---- ---------------- ---------- -------------- -------------- --------------
    1 O                    8.0000    -0.17255800    -0.44393220     0.00000000
    2 H                    1.0000    -0.17255800     4.64398980     0.00000000
    3 H                    1.0000     1.55302200    -1.09253220     0.00000000

 Vector    1  Occ=1.999992D+00  E=-2.061135D+01  Symmetry=a

 Vector    2  Occ=1.998864D+00  E=-1.307538D+00  Symmetry=a

 Vector    3  Occ=1.985430D+00  E=-6.728224D-01  Symmetry=a

 Vector    4  Occ=1.974811D+00  E=-5.499236D-01  Symmetry=a

 Vector    5  Occ=1.219388D+00  E=-3.481063D-01  Symmetry=a

 Vector    6  Occ=7.807472D-01  E=-2.233204D-01  Symmetry=a

 Vector    7  Occ=2.632768D-02  E=-2.611610D-02  Symmetry=a

 Vector    8  Occ=1.443945D-02  E=-1.279011D-02  Symmetry=a

 Vector    9  Occ=0.000000D+00  E= 2.771259D-01  Symmetry=a

 Vector   10  Occ=0.000000D+00  E= 4.151401D-01  Symmetry=a

 Vector   11  Occ=0.000000D+00  E= 6.355962D-01  Symmetry=a

 Vector   12  Occ=0.000000D+00  E= 6.835843D-01  Symmetry=a

 Vector   13  Occ=0.000000D+00  E= 7.860376D-01  Symmetry=a

 Vector   14  Occ=0.000000D+00  E= 8.084575D-01  Symmetry=a

 Vector   15  Occ=0.000000D+00  E= 8.409585D-01  Symmetry=a

 Vector   16  Occ=0.000000D+00  E= 8.898379D-01  Symmetry=a

 Vector   17  Occ=0.000000D+00  E= 9.828034D-01  Symmetry=a

 Vector   18  Occ=0.000000D+00  E= 1.155613D+00  Symmetry=a

         Total SCF energy =    -75.703886952508

 Vector    2  Occ=2.000000D+00  E=-1.307538D+00

 Vector    3  Occ=2.000000D+00  E=-6.728224D-01

 Vector    4  Occ=2.000000D+00  E=-5.499236D-01

 Vector    5  Occ=2.000000D+00  E=-3.481063D-01

 Vector    6  Occ=0.000000D+00  E=-2.233204D-01

 Vector    7  Occ=0.000000D+00  E=-2.611610D-02

 Vector    8  Occ=0.000000D+00  E=-1.279011D-02

 Vector    9  Occ=0.000000D+00  E= 2.771259D-01

 Vector   10  Occ=0.000000D+00  E= 4.151401D-01

 Vector   11  Occ=0.000000D+00  E= 6.355962D-01

 Vector   12  Occ=0.000000D+00  E= 6.835843D-01

 Vector   13  Occ=0.000000D+00  E= 7.860376D-01

 Vector   14  Occ=0.000000D+00  E= 8.084575D-01

 Vector   15  Occ=0.000000D+00  E= 8.409585D-01

       Multipole analysis of the density wrt the origin
       ------------------------------------------------

     L   x y z        total         open         nuclear
     -   - - -        -----         ----         -------
     0   0 0 0     -0.000000      0.000000     10.000000

     1   1 0 0      0.598051      0.000000     -0.000000
     1   0 1 0     -0.120102      0.000000      0.000000
     1   0 0 1      0.000000      0.000000      0.000000

     2   2 0 0     -4.464492      0.000000      2.679864
     2   1 1 0     -0.646485      0.000000     -1.885252
     2   1 0 1     -0.000000      0.000000      0.000000
     2   0 2 0     -3.753423      0.000000     24.336874
     2   0 1 1     -0.000000      0.000000      0.000000

 CCSD total energy / hartree       =       -75.968175960822421
 Total times  cpu:      134.9s     wall:      199.0s
