============================== echo of input deck ==============================
 echo
 start H2O
 title "H2O"

 memory total 24 gb

 geometry units bohr
 symmetry c1
        O  0.00000000  0.00000000  0.00000000
        H  0.00000000  5.124791  0.00000000
        H  1.72558000 -0.64860000  0.00000000
 end

 basis spherical
   * library cc-pVTZ
 end

 mcscf
   active  8
   actelec 10
   multiplicity 1
   maxiter 40
   vectors input h2o.mos
   vectors output h2o.mos
 end

 task mcscf

 scf
   vectors input h2o.mos
   vectors output h2o-trash.mos
   noscf
 end

 tce
   2eorb
   2emet 13
   ccsd
   maxiter 300
 end

 set tce:print_integrals T
 set tce:qorb 8
 set tce:qela 5
 set tce:qelb 5

# set tce:qducc T
# set tce:nactv 3
# set tce:nonhf T
# set tce:ducc_model 6

 set tce:printtol 0.02

 task tce
================================================================================

 Output coordinates in a.u. (scale by  1.000000000 to convert to a.u.)

  No.       Tag          Charge          X              Y              Z
 ---- ---------------- ---------- -------------- -------------- --------------
    1 O                    8.0000    -0.17255800    -0.44761910     0.00000000
    2 H                    1.0000    -0.17255800     4.67717190     0.00000000
    3 H                    1.0000     1.55302200    -1.09621910     0.00000000

 Vector    1  Occ=1.999992D+00  E=-2.061132D+01  Symmetry=a

 Vector    2  Occ=1.998868D+00  E=-1.307546D+00  Symmetry=a

 Vector    3  Occ=1.985442D+00  E=-6.728308D-01  Symmetry=a

 Vector    4  Occ=1.974816D+00  E=-5.499391D-01  Symmetry=a

 Vector    5  Occ=1.212666D+00  E=-3.469664D-01  Symmetry=a

 Vector    6  Occ=7.874617D-01  E=-2.245344D-01  Symmetry=a

 Vector    7  Occ=2.632387D-02  E=-2.611335D-02  Symmetry=a

 Vector    8  Occ=1.442884D-02  E=-1.278503D-02  Symmetry=a

 Vector    9  Occ=0.000000D+00  E= 2.767590D-01  Symmetry=a

 Vector   10  Occ=0.000000D+00  E= 4.153401D-01  Symmetry=a

 Vector   11  Occ=0.000000D+00  E= 6.361046D-01  Symmetry=a

 Vector   12  Occ=0.000000D+00  E= 6.838682D-01  Symmetry=a

 Vector   13  Occ=0.000000D+00  E= 7.863634D-01  Symmetry=a

 Vector   14  Occ=0.000000D+00  E= 8.074865D-01  Symmetry=a

 Vector   15  Occ=0.000000D+00  E= 8.407434D-01  Symmetry=a

 Vector   16  Occ=0.000000D+00  E= 8.893134D-01  Symmetry=a

 Vector   17  Occ=0.000000D+00  E= 9.820316D-01  Symmetry=a

 Vector   18  Occ=0.000000D+00  E= 1.151025D+00  Symmetry=a

         Total SCF energy =    -75.701860761955

 Vector    2  Occ=2.000000D+00  E=-1.307546D+00

 Vector    3  Occ=2.000000D+00  E=-6.728308D-01

 Vector    4  Occ=2.000000D+00  E=-5.499391D-01

 Vector    5  Occ=2.000000D+00  E=-3.469664D-01

 Vector    6  Occ=0.000000D+00  E=-2.245344D-01

 Vector    7  Occ=0.000000D+00  E=-2.611335D-02

 Vector    8  Occ=0.000000D+00  E=-1.278503D-02

 Vector    9  Occ=0.000000D+00  E= 2.767590D-01

 Vector   10  Occ=0.000000D+00  E= 4.153401D-01

 Vector   11  Occ=0.000000D+00  E= 6.361046D-01

 Vector   12  Occ=0.000000D+00  E= 6.838682D-01

 Vector   13  Occ=0.000000D+00  E= 7.863634D-01

 Vector   14  Occ=0.000000D+00  E= 8.074865D-01

 Vector   15  Occ=0.000000D+00  E= 8.407434D-01

       Multipole analysis of the density wrt the origin
       ------------------------------------------------

     L   x y z        total         open         nuclear
     -   - - -        -----         ----         -------
     0   0 0 0     -0.000000      0.000000     10.000000

     1   1 0 0      0.598593      0.000000     -0.000000
     1   0 1 0     -0.123664      0.000000      0.000000
     1   0 0 1      0.000000      0.000000      0.000000

     2   2 0 0     -4.462903      0.000000      2.679864
     2   1 1 0     -0.645416      0.000000     -1.891614
     2   1 0 1     -0.000000      0.000000      0.000000
     2   0 2 0     -3.766782      0.000000     24.680536
     2   0 1 1     -0.000000      0.000000      0.000000

 CCSD total energy / hartree       =       -75.968039319643239
 Total times  cpu:      179.2s     wall:      264.5s
