============================== echo of input deck ==============================
 echo
 start H2O
 title "H2O"

 memory total 24 gb

 geometry units bohr
 symmetry c1
        O  0.00000000  0.00000000  0.00000000
        H  0.00000000  5.198529  0.00000000
        H  1.72558000 -0.64860000  0.00000000
 end

 basis spherical
   * library cc-pVTZ
 end

 mcscf
   active  8
   actelec 10
   multiplicity 1
   maxiter 40
   vectors input h2o.mos
   vectors output h2o.mos
 end

 task mcscf

 scf
   vectors input h2o.mos
   vectors output h2o-trash.mos
   noscf
 end

 tce
   2eorb
   2emet 13
   ccsd
   maxiter 300
 end

 set tce:print_integrals T
 set tce:qorb 8
 set tce:qela 5
 set tce:qelb 5

# set tce:qducc T
# set tce:nactv 3
# set tce:nonhf T
# set tce:ducc_model 6

 set tce:printtol 0.02

 task tce
================================================================================

 Output coordinates in a.u. (scale by  1.000000000 to convert to a.u.)

  No.       Tag          Charge          X              Y              Z
 ---- ---------------- ---------- -------------- -------------- --------------
    1 O                    8.0000    -0.17255800    -0.45499290     0.00000000
    2 H                    1.0000    -0.17255800     4.74353610     0.00000000
    3 H                    1.0000     1.55302200    -1.10359290     0.00000000

 Vector    1  Occ=1.999992D+00  E=-2.061127D+01  Symmetry=a

 Vector    2  Occ=1.998876D+00  E=-1.307554D+00  Symmetry=a

 Vector    3  Occ=1.985467D+00  E=-6.728391D-01  Symmetry=a

 Vector    4  Occ=1.974826D+00  E=-5.499601D-01  Symmetry=a

 Vector    5  Occ=1.199747D+00  E=-3.448386D-01  Symmetry=a

 Vector    6  Occ=8.003671D-01  E=-2.268038D-01  Symmetry=a

 Vector    7  Occ=2.631636D-02  E=-2.610874D-02  Symmetry=a

 Vector    8  Occ=1.440882D-02  E=-1.277623D-02  Symmetry=a

 Vector    9  Occ=0.000000D+00  E= 2.760651D-01  Symmetry=a

 Vector   10  Occ=0.000000D+00  E= 4.155893D-01  Symmetry=a

 Vector   11  Occ=0.000000D+00  E= 6.371134D-01  Symmetry=a

 Vector   12  Occ=0.000000D+00  E= 6.848816D-01  Symmetry=a

 Vector   13  Occ=0.000000D+00  E= 7.869661D-01  Symmetry=a

 Vector   14  Occ=0.000000D+00  E= 8.056238D-01  Symmetry=a

 Vector   15  Occ=0.000000D+00  E= 8.403346D-01  Symmetry=a

 Vector   16  Occ=0.000000D+00  E= 8.883460D-01  Symmetry=a

 Vector   17  Occ=0.000000D+00  E= 9.800462D-01  Symmetry=a

 Vector   18  Occ=0.000000D+00  E= 1.142395D+00  Symmetry=a

         Total SCF energy =    -75.697916534698

 Vector    2  Occ=2.000000D+00  E=-1.307554D+00

 Vector    3  Occ=2.000000D+00  E=-6.728391D-01

 Vector    4  Occ=2.000000D+00  E=-5.499601D-01

 Vector    5  Occ=2.000000D+00  E=-3.448386D-01

 Vector    6  Occ=0.000000D+00  E=-2.268038D-01

 Vector    7  Occ=0.000000D+00  E=-2.610874D-02

 Vector    8  Occ=0.000000D+00  E=-1.277623D-02

 Vector    9  Occ=0.000000D+00  E= 2.760651D-01

 Vector   10  Occ=0.000000D+00  E= 4.155893D-01

 Vector   11  Occ=0.000000D+00  E= 6.371134D-01

 Vector   12  Occ=0.000000D+00  E= 6.848816D-01

 Vector   13  Occ=0.000000D+00  E= 7.869661D-01

 Vector   14  Occ=0.000000D+00  E= 8.056238D-01

 Vector   15  Occ=0.000000D+00  E= 8.403346D-01

       Multipole analysis of the density wrt the origin
       ------------------------------------------------

     L   x y z        total         open         nuclear
     -   - - -        -----         ----         -------
     0   0 0 0     -0.000000      0.000000     10.000000

     1   1 0 0      0.599632      0.000000     -0.000000
     1   0 1 0     -0.130560      0.000000      0.000000
     1   0 0 1      0.000000      0.000000      0.000000

     2   2 0 0     -4.459664      0.000000      2.679864
     2   1 1 0     -0.643669      0.000000     -1.904338
     2   1 0 1     -0.000000      0.000000      0.000000
     2   0 2 0     -3.793582      0.000000     25.375200
     2   0 1 1     -0.000000      0.000000      0.000000

 CCSD total energy / hartree       =       -75.967793383938300
 Total times  cpu:      281.4s     wall:      412.3s
