============================== echo of input deck ==============================
 echo
 start H2O
 title "H2O"

 memory total 24 gb

 geometry units bohr
 symmetry c1
        O  0.00000000  0.00000000  0.00000000
        H  0.00000000  5.3275705  0.00000000
        H  1.72558000 -0.64860000  0.00000000
 end

 basis spherical
   * library cc-pVTZ
 end

 mcscf
   active  8
   actelec 10
   multiplicity 1
   maxiter 40
   vectors input h2o.mos
   vectors output h2o.mos
 end

 task mcscf

 scf
   vectors input h2o.mos
   vectors output h2o-trash.mos
   noscf
 end

 tce
   2eorb
   2emet 13
   ccsd
   maxiter 300
 end

 set tce:print_integrals T
 set tce:qorb 8
 set tce:qela 5
 set tce:qelb 5

# set tce:qducc T
# set tce:nactv 3
# set tce:nonhf T
# set tce:ducc_model 6

 set tce:printtol 0.02

 task tce
================================================================================

 Output coordinates in a.u. (scale by  1.000000000 to convert to a.u.)

  No.       Tag          Charge          X              Y              Z
 ---- ---------------- ---------- -------------- -------------- --------------
    1 O                    8.0000    -0.17255800    -0.46789705     0.00000000
    2 H                    1.0000    -0.17255800     4.85967345     0.00000000
    3 H                    1.0000     1.55302200    -1.11649705     0.00000000

 Vector    1  Occ=1.999992D+00  E=-2.061116D+01  Symmetry=a

 Vector    2  Occ=1.998889D+00  E=-1.307554D+00  Symmetry=a

 Vector    3  Occ=1.985502D+00  E=-6.728391D-01  Symmetry=a

 Vector    4  Occ=1.974840D+00  E=-5.499767D-01  Symmetry=a

 Vector    5  Occ=1.178884D+00  E=-3.415391D-01  Symmetry=a

 Vector    6  Occ=8.212092D-01  E=-2.303306D-01  Symmetry=a

 Vector    7  Occ=2.630526D-02  E=-2.610160D-02  Symmetry=a

 Vector    8  Occ=1.437940D-02  E=-1.276304D-02  Symmetry=a

 Vector    9  Occ=0.000000D+00  E= 2.749193D-01  Symmetry=a

 Vector   10  Occ=0.000000D+00  E= 4.155725D-01  Symmetry=a

 Vector   11  Occ=0.000000D+00  E= 6.388803D-01  Symmetry=a

 Vector   12  Occ=0.000000D+00  E= 6.879370D-01  Symmetry=a

 Vector   13  Occ=0.000000D+00  E= 7.878785D-01  Symmetry=a

 Vector   14  Occ=0.000000D+00  E= 8.026714D-01  Symmetry=a

 Vector   15  Occ=0.000000D+00  E= 8.396246D-01  Symmetry=a

 Vector   16  Occ=0.000000D+00  E= 8.868941D-01  Symmetry=a

 Vector   17  Occ=0.000000D+00  E= 9.751014D-01  Symmetry=a

 Vector   18  Occ=0.000000D+00  E= 1.129218D+00  Symmetry=a

         Total SCF energy =    -75.691384987031

 Vector    2  Occ=2.000000D+00  E=-1.307554D+00

 Vector    3  Occ=2.000000D+00  E=-6.728391D-01

 Vector    4  Occ=2.000000D+00  E=-5.499767D-01

 Vector    5  Occ=2.000000D+00  E=-3.415391D-01

 Vector    6  Occ=0.000000D+00  E=-2.303306D-01

 Vector    7  Occ=0.000000D+00  E=-2.610160D-02

 Vector    8  Occ=0.000000D+00  E=-1.276304D-02

 Vector    9  Occ=0.000000D+00  E= 2.749193D-01

 Vector   10  Occ=0.000000D+00  E= 4.155725D-01

 Vector   11  Occ=0.000000D+00  E= 6.388803D-01

 Vector   12  Occ=0.000000D+00  E= 6.879370D-01

 Vector   13  Occ=0.000000D+00  E= 7.878785D-01

 Vector   14  Occ=0.000000D+00  E= 8.026714D-01

 Vector   15  Occ=0.000000D+00  E= 8.396246D-01

       Multipole analysis of the density wrt the origin
       ------------------------------------------------

     L   x y z        total         open         nuclear
     -   - - -        -----         ----         -------
     0   0 0 0     -0.000000      0.000000     10.000000

     1   1 0 0      0.601332      0.000000     -0.000000
     1   0 1 0     -0.141590      0.000000     -0.000000
     1   0 0 1      0.000000      0.000000      0.000000

     2   2 0 0     -4.454174      0.000000      2.679864
     2   1 1 0     -0.641487      0.000000     -1.926605
     2   1 0 1     -0.000000      0.000000      0.000000
     2   0 2 0     -3.838509      0.000000     26.614413
     2   0 1 1     -0.000000      0.000000      0.000000

 CCSD total energy / hartree       =       -75.967438635054549
 Total times  cpu:      319.5s     wall:      466.7s
