============================== echo of input deck ==============================
 echo
 start H2O
 title "H2O"

 memory total 24 gb

 geometry units bohr
 symmetry c1
        O  0.00000000  0.00000000  0.00000000
        H  0.00000000  5.382874  0.00000000
        H  1.72558000 -0.64860000  0.00000000
 end

 basis spherical
   * library cc-pVTZ
 end

 mcscf
   active  8
   actelec 10
   multiplicity 1
   maxiter 40
   vectors input h2o.mos
   vectors output h2o.mos
 end

 task mcscf

 scf
   vectors input h2o.mos
   vectors output h2o-trash.mos
   noscf
 end

 tce
   2eorb
   2emet 13
   ccsd
   maxiter 300
 end

 set tce:print_integrals T
 set tce:qorb 8
 set tce:qela 5
 set tce:qelb 5

# set tce:qducc T
# set tce:nactv 3
# set tce:nonhf T
# set tce:ducc_model 6

 set tce:printtol 0.02

 task tce
================================================================================

 Output coordinates in a.u. (scale by  1.000000000 to convert to a.u.)

  No.       Tag          Charge          X              Y              Z
 ---- ---------------- ---------- -------------- -------------- --------------
    1 O                    8.0000    -0.17255800    -0.47342740     0.00000000
    2 H                    1.0000    -0.17255800     4.90944660     0.00000000
    3 H                    1.0000     1.55302200    -1.12202740     0.00000000

 Vector    1  Occ=1.999992D+00  E=-2.061111D+01  Symmetry=a

 Vector    2  Occ=1.998893D+00  E=-1.307549D+00  Symmetry=a

 Vector    3  Occ=1.985515D+00  E=-6.728337D-01  Symmetry=a

 Vector    4  Occ=1.974845D+00  E=-5.499766D-01  Symmetry=a

 Vector    5  Occ=1.170612D+00  E=-3.402827D-01  Symmetry=a

 Vector    6  Occ=8.294729D-01  E=-2.316763D-01  Symmetry=a

 Vector    7  Occ=2.630113D-02  E=-2.609882D-02  Symmetry=a

 Vector    8  Occ=1.436871D-02  E=-1.275817D-02  Symmetry=a

 Vector    9  Occ=0.000000D+00  E= 2.744564D-01  Symmetry=a

 Vector   10  Occ=0.000000D+00  E= 4.154039D-01  Symmetry=a

 Vector   11  Occ=0.000000D+00  E= 6.396368D-01  Symmetry=a

 Vector   12  Occ=0.000000D+00  E= 6.896699D-01  Symmetry=a

 Vector   13  Occ=0.000000D+00  E= 7.882149D-01  Symmetry=a

 Vector   14  Occ=0.000000D+00  E= 8.015311D-01  Symmetry=a

 Vector   15  Occ=0.000000D+00  E= 8.393043D-01  Symmetry=a

 Vector   16  Occ=0.000000D+00  E= 8.863599D-01  Symmetry=a

 Vector   17  Occ=0.000000D+00  E= 9.724167D-01  Symmetry=a

 Vector   18  Occ=0.000000D+00  E= 1.124362D+00  Symmetry=a

         Total SCF energy =    -75.688730159628

 Vector    2  Occ=2.000000D+00  E=-1.307549D+00

 Vector    3  Occ=2.000000D+00  E=-6.728337D-01

 Vector    4  Occ=2.000000D+00  E=-5.499766D-01

 Vector    5  Occ=2.000000D+00  E=-3.402827D-01

 Vector    6  Occ=0.000000D+00  E=-2.316763D-01

 Vector    7  Occ=0.000000D+00  E=-2.609882D-02

 Vector    8  Occ=0.000000D+00  E=-1.275817D-02

 Vector    9  Occ=0.000000D+00  E= 2.744564D-01

 Vector   10  Occ=0.000000D+00  E= 4.154039D-01

 Vector   11  Occ=0.000000D+00  E= 6.396368D-01

 Vector   12  Occ=0.000000D+00  E= 6.896699D-01

 Vector   13  Occ=0.000000D+00  E= 7.882149D-01

 Vector   14  Occ=0.000000D+00  E= 8.015311D-01

 Vector   15  Occ=0.000000D+00  E= 8.393043D-01

       Multipole analysis of the density wrt the origin
       ------------------------------------------------

     L   x y z        total         open         nuclear
     -   - - -        -----         ----         -------
     0   0 0 0     -0.000000      0.000000     10.000000

     1   1 0 0      0.602004      0.000000     -0.000000
     1   0 1 0     -0.145917      0.000000     -0.000000
     1   0 0 1      0.000000      0.000000      0.000000

     2   2 0 0     -4.451945      0.000000      2.679864
     2   1 1 0     -0.640943      0.000000     -1.936148
     2   1 0 1     -0.000000      0.000000      0.000000
     2   0 2 0     -3.856966      0.000000     27.154679
     2   0 1 1     -0.000000      0.000000      0.000000

 CCSD total energy / hartree       =       -75.967311773151508
 Total times  cpu:      123.9s     wall:      181.5s
