============================== echo of input deck ==============================
 echo
 start HF
 title "HF"

 memory total 24 gb

 geometry units bohr
 symmetry c1
        F  0.00000000  0.00000000  0.00000000
        H  0.00000000  1.645875  0.00000000
 end

 basis spherical
   * library cc-pVTZ
 end

 mcscf
   active  8
   actelec 10
   multiplicity 1
   maxiter 40
   vectors input HF.mos
   vectors output HF.mos
 end

 task mcscf

 scf
   vectors input HF.mos
   vectors output HF-trash.mos
   noscf
 end

 tce
   2eorb
   2emet 13
   ccsd
   maxiter 500
 end

 set tce:print_integrals T
 set tce:qorb 8
 set tce:qela 5
 set tce:qelb 5

# set tce:qducc T
# set tce:nactv 3
# set tce:nonhf T
# set tce:ducc_model 3

 set tce:printtol 0.02

 task tce
================================================================================

 Output coordinates in a.u. (scale by  1.000000000 to convert to a.u.)

  No.       Tag          Charge          X              Y              Z
 ---- ---------------- ---------- -------------- -------------- --------------
    1 F                    9.0000     0.00000000    -0.16458750     0.00000000
    2 H                    1.0000     0.00000000     1.48128750     0.00000000

 Vector    1  Occ=1.999971D+00  E=-2.628554D+01  Symmetry=a

 Vector    2  Occ=1.999327D+00  E=-1.622050D+00  Symmetry=a

 Vector    3  Occ=1.999327D+00  E=-8.020998D-01  Symmetry=a

 Vector    4  Occ=1.995142D+00  E=-6.526780D-01  Symmetry=a

 Vector    5  Occ=1.981049D+00  E=-6.526780D-01  Symmetry=a

 Vector    6  Occ=1.834335D-02  E=-2.336829D-02  Symmetry=a

 Vector    7  Occ=4.893536D-03  E=-8.477947D-03  Symmetry=a

 Vector    8  Occ=1.948556D-03  E=-3.881917D-03  Symmetry=a

 Vector    9  Occ=0.000000D+00  E= 3.815754D-01  Symmetry=a

 Vector   10  Occ=0.000000D+00  E= 8.706424D-01  Symmetry=a

 Vector   11  Occ=0.000000D+00  E= 8.706424D-01  Symmetry=a

 Vector   12  Occ=0.000000D+00  E= 9.783394D-01  Symmetry=a

 Vector   13  Occ=0.000000D+00  E= 9.783394D-01  Symmetry=a

 Vector   14  Occ=0.000000D+00  E= 1.199013D+00  Symmetry=a

 Vector   15  Occ=0.000000D+00  E= 1.496469D+00  Symmetry=a

 Vector   16  Occ=0.000000D+00  E= 2.221261D+00  Symmetry=a

 Vector   17  Occ=0.000000D+00  E= 2.221261D+00  Symmetry=a

 Vector   18  Occ=0.000000D+00  E= 2.563427D+00  Symmetry=a

         Total SCF energy =   -100.057067736388

 Vector    2  Occ=2.000000D+00  E=-1.622050D+00

 Vector    3  Occ=2.000000D+00  E=-8.020998D-01

 Vector    4  Occ=2.000000D+00  E=-6.526780D-01

 Vector    5  Occ=2.000000D+00  E=-6.526780D-01

 Vector    6  Occ=0.000000D+00  E=-2.336829D-02

 Vector    7  Occ=0.000000D+00  E=-8.477947D-03

 Vector    8  Occ=0.000000D+00  E=-3.881917D-03

 Vector    9  Occ=0.000000D+00  E= 3.815754D-01

 Vector   10  Occ=0.000000D+00  E= 8.706424D-01

 Vector   11  Occ=0.000000D+00  E= 8.706424D-01

 Vector   12  Occ=0.000000D+00  E= 9.783394D-01

 Vector   13  Occ=0.000000D+00  E= 9.783394D-01

 Vector   14  Occ=0.000000D+00  E= 1.199013D+00

 Vector   15  Occ=0.000000D+00  E= 1.496469D+00

       Multipole analysis of the density wrt the origin
       ------------------------------------------------

     L   x y z        total         open         nuclear
     -   - - -        -----         ----         -------
     0   0 0 0     -0.000000      0.000000     10.000000

     1   1 0 0     -0.000000      0.000000      0.000000
     1   0 1 0      0.706410      0.000000      0.000000
     1   0 0 1      0.000000      0.000000      0.000000

     2   2 0 0     -4.087456      0.000000      0.000000
     2   1 1 0     -0.000000      0.000000      0.000000
     2   1 0 1     -0.000000      0.000000      0.000000
     2   0 2 0     -2.704433      0.000000      2.438014
     2   0 1 1     -0.000000      0.000000      0.000000

 CCSD total energy / hartree       =      -100.104130118831151
 Total times  cpu:      161.5s     wall:      224.5s
