============================== echo of input deck ==============================
 echo
 start HF
 title "HF"

 memory total 24 gb

 geometry units bohr
 symmetry c1
        F  0.00000000  0.00000000  0.00000000
        H  0.00000000  1.680525  0.00000000
 end

 basis spherical
   * library cc-pVTZ
 end

 mcscf
   active  8
   actelec 10
   multiplicity 1
   maxiter 40
   vectors input HF.mos
   vectors output HF.mos
 end

 task mcscf

 scf
   vectors input HF.mos
   vectors output HF-trash.mos
   noscf
 end

 tce
   2eorb
   2emet 13
   ccsd
   maxiter 500
 end

 set tce:print_integrals T
 set tce:qorb 8
 set tce:qela 5
 set tce:qelb 5

# set tce:qducc T
# set tce:nactv 3
# set tce:nonhf T
# set tce:ducc_model 3

 set tce:printtol 0.02

 task tce
================================================================================

 Output coordinates in a.u. (scale by  1.000000000 to convert to a.u.)

  No.       Tag          Charge          X              Y              Z
 ---- ---------------- ---------- -------------- -------------- --------------
    1 F                    9.0000     0.00000000    -0.16805250     0.00000000
    2 H                    1.0000     0.00000000     1.51247250     0.00000000

 Vector    1  Occ=1.999971D+00  E=-2.628626D+01  Symmetry=a

 Vector    2  Occ=1.999315D+00  E=-1.614905D+00  Symmetry=a

 Vector    3  Occ=1.999315D+00  E=-7.950372D-01  Symmetry=a

 Vector    4  Occ=1.995080D+00  E=-6.509668D-01  Symmetry=a

 Vector    5  Occ=1.979859D+00  E=-6.509668D-01  Symmetry=a

 Vector    6  Occ=1.959076D-02  E=-2.425477D-02  Symmetry=a

 Vector    7  Occ=4.912112D-03  E=-8.428151D-03  Symmetry=a

 Vector    8  Occ=1.954984D-03  E=-3.849161D-03  Symmetry=a

 Vector    9  Occ=0.000000D+00  E= 3.810138D-01  Symmetry=a

 Vector   10  Occ=0.000000D+00  E= 8.635371D-01  Symmetry=a

 Vector   11  Occ=0.000000D+00  E= 8.635371D-01  Symmetry=a

 Vector   12  Occ=0.000000D+00  E= 9.820526D-01  Symmetry=a

 Vector   13  Occ=0.000000D+00  E= 9.820526D-01  Symmetry=a

 Vector   14  Occ=0.000000D+00  E= 1.195357D+00  Symmetry=a

 Vector   15  Occ=0.000000D+00  E= 1.507467D+00  Symmetry=a

 Vector   16  Occ=0.000000D+00  E= 2.222932D+00  Symmetry=a

 Vector   17  Occ=0.000000D+00  E= 2.222932D+00  Symmetry=a

 Vector   18  Occ=0.000000D+00  E= 2.551025D+00  Symmetry=a

         Total SCF energy =   -100.057942600059

 Vector    2  Occ=2.000000D+00  E=-1.614905D+00

 Vector    3  Occ=2.000000D+00  E=-7.950372D-01

 Vector    4  Occ=2.000000D+00  E=-6.509668D-01

 Vector    5  Occ=2.000000D+00  E=-6.509668D-01

 Vector    6  Occ=0.000000D+00  E=-2.425477D-02

 Vector    7  Occ=0.000000D+00  E=-8.428151D-03

 Vector    8  Occ=0.000000D+00  E=-3.849161D-03

 Vector    9  Occ=0.000000D+00  E= 3.810138D-01

 Vector   10  Occ=0.000000D+00  E= 8.635371D-01

 Vector   11  Occ=0.000000D+00  E= 8.635371D-01

 Vector   12  Occ=0.000000D+00  E= 9.820526D-01

 Vector   13  Occ=0.000000D+00  E= 9.820526D-01

 Vector   14  Occ=0.000000D+00  E= 1.195357D+00

 Vector   15  Occ=0.000000D+00  E= 1.507467D+00

       Multipole analysis of the density wrt the origin
       ------------------------------------------------

     L   x y z        total         open         nuclear
     -   - - -        -----         ----         -------
     0   0 0 0     -0.000000      0.000000     10.000000

     1   1 0 0      0.000000      0.000000      0.000000
     1   0 1 0      0.717145      0.000000     -0.000000
     1   0 0 1     -0.000000      0.000000      0.000000

     2   2 0 0     -4.100366      0.000000      0.000000
     2   1 1 0     -0.000000      0.000000      0.000000
     2   1 0 1     -0.000000      0.000000      0.000000
     2   0 2 0     -2.670121      0.000000      2.541748
     2   0 1 1     -0.000000      0.000000      0.000000

 CCSD total energy / hartree       =      -100.105798566795954
 Total times  cpu:      155.7s     wall:      216.8s
