============================== echo of input deck ==============================
 echo
 start H2O
 title "H2O"

 memory total 24 gb

 geometry units bohr
 symmetry c1
        O  0.00000000  0.00000000  0.00000000
        H  0.00000000  1.7144085  0.00000000
        H  1.72558000 -0.64860000  0.00000000
 end

 basis spherical
   * library cc-pVTZ
 end

 mcscf
   active  8
   actelec 10
   multiplicity 1
   maxiter 40
   vectors input h2o.mos
   vectors output h2o.mos
 end

 task mcscf

 scf
   vectors input h2o.mos
   vectors output h2o-trash.mos
   noscf
 end

 tce
   2eorb
   2emet 13
   ccsd
 end

# set tce:print_integrals T
# set tce:qorb 8
# set tce:qela 5
# set tce:qelb 5

 set tce:qducc T
 set tce:nactv 3
 set tce:nonhf T
 set tce:ducc_model 3

 set tce:printtol 0.02

 task tce
================================================================================

 Output coordinates in a.u. (scale by  1.000000000 to convert to a.u.)

  No.       Tag          Charge          X              Y              Z
 ---- ---------------- ---------- -------------- -------------- --------------
    1 O                    8.0000    -0.17255800    -0.10658085     0.00000000
    2 H                    1.0000    -0.17255800     1.60782765     0.00000000
    3 H                    1.0000     1.55302200    -0.75518085     0.00000000

 Vector    1  Occ=1.999988D+00  E=-2.053854D+01  Symmetry=a

 Vector    2  Occ=1.999033D+00  E=-1.360309D+00  Symmetry=a

 Vector    3  Occ=1.982801D+00  E=-7.552422D-01  Symmetry=a

 Vector    4  Occ=1.980514D+00  E=-5.870533D-01  Symmetry=a

 Vector    5  Occ=1.977293D+00  E=-5.268554D-01  Symmetry=a

 Vector    6  Occ=2.341143D-02  E=-2.567872D-02  Symmetry=a

 Vector    7  Occ=2.004086D-02  E=-2.286755D-02  Symmetry=a

 Vector    8  Occ=1.691935D-02  E=-1.601898D-02  Symmetry=a

 Vector    9  Occ=0.000000D+00  E= 2.880287D-01  Symmetry=a

 Vector   10  Occ=0.000000D+00  E= 3.353250D-01  Symmetry=a

 Vector   11  Occ=0.000000D+00  E= 6.127849D-01  Symmetry=a

 Vector   12  Occ=0.000000D+00  E= 6.537740D-01  Symmetry=a

 Vector   13  Occ=0.000000D+00  E= 8.098448D-01  Symmetry=a

 Vector   14  Occ=0.000000D+00  E= 8.500851D-01  Symmetry=a

 Vector   15  Occ=0.000000D+00  E= 9.739256D-01  Symmetry=a

 Vector   16  Occ=0.000000D+00  E= 1.104540D+00  Symmetry=a

 Vector   17  Occ=0.000000D+00  E= 1.187680D+00  Symmetry=a

 Vector   18  Occ=0.000000D+00  E= 1.377943D+00  Symmetry=a

         Total SCF energy =    -76.053475685152

 Vector    2  Occ=2.000000D+00  E=-1.360309D+00

 Vector    3  Occ=2.000000D+00  E=-7.552422D-01

 Vector    4  Occ=2.000000D+00  E=-5.870533D-01

 Vector    5  Occ=2.000000D+00  E=-5.268554D-01

 Vector    6  Occ=0.000000D+00  E=-2.567872D-02

 Vector    7  Occ=0.000000D+00  E=-2.286755D-02

 Vector    8  Occ=0.000000D+00  E=-1.601898D-02

 Vector    9  Occ=0.000000D+00  E= 2.880287D-01

 Vector   10  Occ=0.000000D+00  E= 3.353250D-01

 Vector   11  Occ=0.000000D+00  E= 6.127849D-01

 Vector   12  Occ=0.000000D+00  E= 6.537740D-01

 Vector   13  Occ=0.000000D+00  E= 8.098448D-01

 Vector   14  Occ=0.000000D+00  E= 8.500851D-01

 Vector   15  Occ=0.000000D+00  E= 9.739256D-01

       Multipole analysis of the density wrt the origin
       ------------------------------------------------

     L   x y z        total         open         nuclear
     -   - - -        -----         ----         -------
     0   0 0 0     -0.000000      0.000000     10.000000

     1   1 0 0      0.597164      0.000000     -0.000000
     1   0 1 0      0.385706      0.000000      0.000000
     1   0 0 1     -0.000001      0.000000      0.000000

     2   2 0 0     -4.050182      0.000000      2.679864
     2   1 1 0     -0.803316      0.000000     -1.303125
     2   1 0 1     -0.000000      0.000000      0.000000
     2   0 2 0     -3.588745      0.000000      3.246284
     2   0 1 1     -0.000000      0.000000      0.000000

 CCSD total energy / hartree       =       -76.333934781285222
 Total times  cpu:      108.0s     wall:      124.3s
