============================== echo of input deck ==============================
 echo
 start H2O
 title "H2O"

 memory total 24 gb

 geometry units bohr
 symmetry c1
        O  0.00000000  0.00000000  0.00000000
        H  0.00000000  2.12918475  0.00000000
        H  1.72558000 -0.64860000  0.00000000
 end

 basis spherical
   * library cc-pVTZ
 end

 mcscf
   active  8
   actelec 10
   multiplicity 1
   maxiter 40
   vectors input h2o.mos
   vectors output h2o.mos
 end

 task mcscf

 scf
   vectors input h2o.mos
   vectors output h2o-trash.mos
   noscf
 end

 tce
   2eorb
   2emet 13
   ccsd
 end

# set tce:print_integrals T
# set tce:qorb 8
# set tce:qela 5
# set tce:qelb 5

 set tce:qducc T
 set tce:nactv 3
 set tce:nonhf T
 set tce:ducc_model 3

 set tce:printtol 0.02

 task tce
================================================================================

 Output coordinates in a.u. (scale by  1.000000000 to convert to a.u.)

  No.       Tag          Charge          X              Y              Z
 ---- ---------------- ---------- -------------- -------------- --------------
    1 O                    8.0000    -0.17255800    -0.14805848     0.00000000
    2 H                    1.0000    -0.17255800     1.98112628     0.00000000
    3 H                    1.0000     1.55302200    -0.79665848     0.00000000

 Vector    1  Occ=1.999989D+00  E=-2.055547D+01  Symmetry=a

 Vector    2  Occ=1.998636D+00  E=-1.313280D+00  Symmetry=a

 Vector    3  Occ=1.981018D+00  E=-7.004440D-01  Symmetry=a

 Vector    4  Occ=1.975684D+00  E=-5.687752D-01  Symmetry=a

 Vector    5  Occ=1.965208D+00  E=-5.196087D-01  Symmetry=a

 Vector    6  Occ=3.591106D-02  E=-3.268180D-02  Symmetry=a

 Vector    7  Occ=2.504300D-02  E=-2.578829D-02  Symmetry=a

 Vector    8  Occ=1.851062D-02  E=-1.583645D-02  Symmetry=a

 Vector    9  Occ=0.000000D+00  E= 3.070762D-01  Symmetry=a

 Vector   10  Occ=0.000000D+00  E= 3.354550D-01  Symmetry=a

 Vector   11  Occ=0.000000D+00  E= 6.109293D-01  Symmetry=a

 Vector   12  Occ=0.000000D+00  E= 6.877972D-01  Symmetry=a

 Vector   13  Occ=0.000000D+00  E= 8.175854D-01  Symmetry=a

 Vector   14  Occ=0.000000D+00  E= 8.278074D-01  Symmetry=a

 Vector   15  Occ=0.000000D+00  E= 9.717463D-01  Symmetry=a

 Vector   16  Occ=0.000000D+00  E= 1.121501D+00  Symmetry=a

 Vector   17  Occ=0.000000D+00  E= 1.186655D+00  Symmetry=a

 Vector   18  Occ=0.000000D+00  E= 1.261121D+00  Symmetry=a

         Total SCF energy =    -76.027386185435

 Vector    2  Occ=2.000000D+00  E=-1.313280D+00

 Vector    3  Occ=2.000000D+00  E=-7.004440D-01

 Vector    4  Occ=2.000000D+00  E=-5.687752D-01

 Vector    5  Occ=2.000000D+00  E=-5.196087D-01

 Vector    6  Occ=0.000000D+00  E=-3.268180D-02

 Vector    7  Occ=0.000000D+00  E=-2.578829D-02

 Vector    8  Occ=0.000000D+00  E=-1.583645D-02

 Vector    9  Occ=0.000000D+00  E= 3.070762D-01

 Vector   10  Occ=0.000000D+00  E= 3.354550D-01

 Vector   11  Occ=0.000000D+00  E= 6.109293D-01

 Vector   12  Occ=0.000000D+00  E= 6.877972D-01

 Vector   13  Occ=0.000000D+00  E= 8.175854D-01

 Vector   14  Occ=0.000000D+00  E= 8.278074D-01

 Vector   15  Occ=0.000000D+00  E= 9.717463D-01

       Multipole analysis of the density wrt the origin
       ------------------------------------------------

     L   x y z        total         open         nuclear
     -   - - -        -----         ----         -------
     0   0 0 0     -0.000000      0.000000     10.000000

     1   1 0 0      0.574917      0.000000     -0.000000
     1   0 1 0      0.446092      0.000000      0.000000
     1   0 0 1     -0.000001      0.000000      0.000000

     2   2 0 0     -4.218981      0.000000      2.679864
     2   1 1 0     -0.842367      0.000000     -1.374698
     2   1 0 1     -0.000001      0.000000      0.000000
     2   0 2 0     -3.260881      0.000000      4.734897
     2   0 1 1     -0.000000      0.000000      0.000000

 CCSD total energy / hartree       =       -76.314983324575863
 Total times  cpu:       98.1s     wall:      111.8s
