============================== echo of input deck ==============================
 echo
 start H2O
 title "H2O"

 memory total 24 gb

 geometry units bohr
 symmetry c1
        O  0.00000000  0.00000000  0.00000000
        H  0.00000000  2.16605375  0.00000000
        H  1.72558000 -0.64860000  0.00000000
 end

 basis spherical
   * library cc-pVTZ
 end

 mcscf
   active  8
   actelec 10
   multiplicity 1
   maxiter 40
   vectors input h2o.mos
   vectors output h2o.mos
 end

 task mcscf

 scf
   vectors input h2o.mos
   vectors output h2o-trash.mos
   noscf
 end

 tce
   2eorb
   2emet 13
   ccsd
 end

# set tce:print_integrals T
# set tce:qorb 8
# set tce:qela 5
# set tce:qelb 5

 set tce:qducc T
 set tce:nactv 3
 set tce:nonhf T
 set tce:ducc_model 3

 set tce:printtol 0.02

 task tce
================================================================================

 Output coordinates in a.u. (scale by  1.000000000 to convert to a.u.)

  No.       Tag          Charge          X              Y              Z
 ---- ---------------- ---------- -------------- -------------- --------------
    1 O                    8.0000    -0.17255800    -0.15174538     0.00000000
    2 H                    1.0000    -0.17255800     2.01430838     0.00000000
    3 H                    1.0000     1.55302200    -0.80034538     0.00000000

 Vector    1  Occ=1.999989D+00  E=-2.055682D+01  Symmetry=a

 Vector    2  Occ=1.998595D+00  E=-1.310676D+00  Symmetry=a

 Vector    3  Occ=1.980898D+00  E=-6.965642D-01  Symmetry=a

 Vector    4  Occ=1.975546D+00  E=-5.668973D-01  Symmetry=a

 Vector    5  Occ=1.963258D+00  E=-5.193212D-01  Symmetry=a

 Vector    6  Occ=3.791764D-02  E=-3.372418D-02  Symmetry=a

 Vector    7  Occ=2.518377D-02  E=-2.582064D-02  Symmetry=a

 Vector    8  Occ=1.861190D-02  E=-1.579443D-02  Symmetry=a

 Vector    9  Occ=0.000000D+00  E= 3.083903D-01  Symmetry=a

 Vector   10  Occ=0.000000D+00  E= 3.356355D-01  Symmetry=a

 Vector   11  Occ=0.000000D+00  E= 6.105695D-01  Symmetry=a

 Vector   12  Occ=0.000000D+00  E= 6.926591D-01  Symmetry=a

 Vector   13  Occ=0.000000D+00  E= 8.188983D-01  Symmetry=a

 Vector   14  Occ=0.000000D+00  E= 8.257914D-01  Symmetry=a

 Vector   15  Occ=0.000000D+00  E= 9.713695D-01  Symmetry=a

 Vector   16  Occ=0.000000D+00  E= 1.116093D+00  Symmetry=a

 Vector   17  Occ=0.000000D+00  E= 1.187774D+00  Symmetry=a

 Vector   18  Occ=0.000000D+00  E= 1.253313D+00  Symmetry=a

         Total SCF energy =    -76.022662561816

 Vector    2  Occ=2.000000D+00  E=-1.310676D+00

 Vector    3  Occ=2.000000D+00  E=-6.965642D-01

 Vector    4  Occ=2.000000D+00  E=-5.668973D-01

 Vector    5  Occ=2.000000D+00  E=-5.193212D-01

 Vector    6  Occ=0.000000D+00  E=-3.372418D-02

 Vector    7  Occ=0.000000D+00  E=-2.582064D-02

 Vector    8  Occ=0.000000D+00  E=-1.579443D-02

 Vector    9  Occ=0.000000D+00  E= 3.083903D-01

 Vector   10  Occ=0.000000D+00  E= 3.356355D-01

 Vector   11  Occ=0.000000D+00  E= 6.105695D-01

 Vector   12  Occ=0.000000D+00  E= 6.926591D-01

 Vector   13  Occ=0.000000D+00  E= 8.188983D-01

 Vector   14  Occ=0.000000D+00  E= 8.257914D-01

 Vector   15  Occ=0.000000D+00  E= 9.713695D-01

       Multipole analysis of the density wrt the origin
       ------------------------------------------------

     L   x y z        total         open         nuclear
     -   - - -        -----         ----         -------
     0   0 0 0     -0.000000      0.000000     10.000000

     1   1 0 0      0.573343      0.000000     -0.000000
     1   0 1 0      0.449305      0.000000      0.000000
     1   0 0 1      0.000001      0.000000      0.000000

     2   2 0 0     -4.232347      0.000000      2.679864
     2   1 1 0     -0.845217      0.000000     -1.381060
     2   1 0 1      0.000001      0.000000      0.000000
     2   0 2 0     -3.230901      0.000000      4.882204
     2   0 1 1      0.000000      0.000000      0.000000

 CCSD total energy / hartree       =       -76.310971898583176
 Total times  cpu:       93.9s     wall:      106.6s
