============================== echo of input deck ==============================
 echo
 start H2O
 title "H2O"

 memory total 24 gb

 geometry units bohr
 symmetry c1
        O  0.00000000  0.00000000  0.00000000
        H  0.00000000  2.8573475  0.00000000
        H  1.72558000 -0.64860000  0.00000000
 end

 basis spherical
   * library cc-pVTZ
 end

 mcscf
   active  8
   actelec 10
   multiplicity 1
   maxiter 40
   vectors input h2o.mos
   vectors output h2o.mos
 end

 task mcscf

 scf
   vectors input h2o.mos
   vectors output h2o-trash.mos
   noscf
 end

 tce
   2eorb
   2emet 13
   ccsd
   maxiter 300
 end

# set tce:print_integrals T
# set tce:qorb 8
# set tce:qela 5
# set tce:qelb 5

 set tce:qducc T
 set tce:nactv 3
 set tce:nonhf T
 set tce:ducc_model 3

 set tce:printtol 0.02

 task tce
================================================================================

 Output coordinates in a.u. (scale by  1.000000000 to convert to a.u.)

  No.       Tag          Charge          X              Y              Z
 ---- ---------------- ---------- -------------- -------------- --------------
    1 O                    8.0000    -0.17255800    -0.22087475     0.00000000
    2 H                    1.0000    -0.17255800     2.63647275     0.00000000
    3 H                    1.0000     1.55302200    -0.86947475     0.00000000

 Vector    1  Occ=1.999990D+00  E=-2.058155D+01  Symmetry=a

 Vector    2  Occ=1.998017D+00  E=-1.291539D+00  Symmetry=a

 Vector    3  Occ=1.980673D+00  E=-6.597908D-01  Symmetry=a

 Vector    4  Occ=1.973873D+00  E=-5.237781D-01  Symmetry=a

 Vector    5  Occ=1.885444D+00  E=-5.171790D-01  Symmetry=a

 Vector    6  Occ=1.164425D-01  E=-6.334767D-02  Symmetry=a

 Vector    7  Occ=2.693140D-02  E=-2.600099D-02  Symmetry=a

 Vector    8  Occ=1.862793D-02  E=-1.462860D-02  Symmetry=a

 Vector    9  Occ=0.000000D+00  E= 3.130225D-01  Symmetry=a

 Vector   10  Occ=0.000000D+00  E= 3.494817D-01  Symmetry=a

 Vector   11  Occ=0.000000D+00  E= 6.062316D-01  Symmetry=a

 Vector   12  Occ=0.000000D+00  E= 7.704567D-01  Symmetry=a

 Vector   13  Occ=0.000000D+00  E= 7.905537D-01  Symmetry=a

 Vector   14  Occ=0.000000D+00  E= 8.538825D-01  Symmetry=a

 Vector   15  Occ=0.000000D+00  E= 9.570516D-01  Symmetry=a

 Vector   16  Occ=0.000000D+00  E= 1.026057D+00  Symmetry=a

 Vector   17  Occ=0.000000D+00  E= 1.028597D+00  Symmetry=a

 Vector   18  Occ=0.000000D+00  E= 1.291656D+00  Symmetry=a

         Total SCF energy =    -75.921943006189

 Vector    2  Occ=2.000000D+00  E=-1.291539D+00

 Vector    3  Occ=2.000000D+00  E=-6.597908D-01

 Vector    4  Occ=2.000000D+00  E=-5.237781D-01

 Vector    5  Occ=2.000000D+00  E=-5.171790D-01

 Vector    6  Occ=0.000000D+00  E=-6.334767D-02

 Vector    7  Occ=0.000000D+00  E=-2.600099D-02

 Vector    8  Occ=0.000000D+00  E=-1.462860D-02

 Vector    9  Occ=0.000000D+00  E= 3.130225D-01

 Vector   10  Occ=0.000000D+00  E= 3.494817D-01

 Vector   11  Occ=0.000000D+00  E= 6.062316D-01

 Vector   12  Occ=0.000000D+00  E= 7.704567D-01

 Vector   13  Occ=0.000000D+00  E= 7.905537D-01

 Vector   14  Occ=0.000000D+00  E= 8.538825D-01

 Vector   15  Occ=0.000000D+00  E= 9.570516D-01

       Multipole analysis of the density wrt the origin
       ------------------------------------------------

     L   x y z        total         open         nuclear
     -   - - -        -----         ----         -------
     0   0 0 0     -0.000000      0.000000     10.000000

     1   1 0 0      0.558108      0.000000     -0.000000
     1   0 1 0      0.400378      0.000000      0.000000
     1   0 0 1     -0.000003      0.000000      0.000000

     2   2 0 0     -4.423858      0.000000      2.679864
     2   1 1 0     -0.858310      0.000000     -1.500348
     2   1 0 1     -0.000017      0.000000      0.000000
     2   0 2 0     -2.848752      0.000000      8.097260
     2   0 1 1     -0.000011      0.000000      0.000000

 CCSD total energy / hartree       =       -76.227999807822798
 Total times  cpu:       98.0s     wall:      165.5s
