============================== echo of input deck ==============================
 echo
 start H2O
 title "H2O"

 memory total 24 gb

 geometry units bohr
 symmetry c1
        O  0.00000000  0.00000000  0.00000000
        H  0.00000000  2.94952  0.00000000
        H  1.72558000 -0.64860000  0.00000000
 end

 basis spherical
   * library cc-pVTZ
 end

 mcscf
   active  8
   actelec 10
   multiplicity 1
   maxiter 40
   vectors input h2o.mos
   vectors output h2o.mos
 end

 task mcscf

 scf
   vectors input h2o.mos
   vectors output h2o-trash.mos
   noscf
 end

 tce
   2eorb
   2emet 13
   ccsd
   maxiter 300
 end

# set tce:print_integrals T
# set tce:qorb 8
# set tce:qela 5
# set tce:qelb 5

 set tce:qducc T
 set tce:nactv 3
 set tce:nonhf T
 set tce:ducc_model 3

 set tce:printtol 0.02

 task tce
================================================================================

 Output coordinates in a.u. (scale by  1.000000000 to convert to a.u.)

  No.       Tag          Charge          X              Y              Z
 ---- ---------------- ---------- -------------- -------------- --------------
    1 O                    8.0000    -0.17255800    -0.23009200     0.00000000
    2 H                    1.0000    -0.17255800     2.71942800     0.00000000
    3 H                    1.0000     1.55302200    -0.87869200     0.00000000

 Vector    1  Occ=1.999991D+00  E=-2.058524D+01  Symmetry=a

 Vector    2  Occ=1.998009D+00  E=-1.291701D+00  Symmetry=a

 Vector    3  Occ=1.980934D+00  E=-6.588580D-01  Symmetry=a

 Vector    4  Occ=1.973817D+00  E=-5.258359D-01  Symmetry=a

 Vector    5  Occ=1.866119D+00  E=-5.093686D-01  Symmetry=a

 Vector    6  Occ=1.357478D-01  E=-6.892733D-02  Symmetry=a

 Vector    7  Occ=2.700521D-02  E=-2.623794D-02  Symmetry=a

 Vector    8  Occ=1.837682D-02  E=-1.443780D-02  Symmetry=a

 Vector    9  Occ=0.000000D+00  E= 3.141798D-01  Symmetry=a

 Vector   10  Occ=0.000000D+00  E= 3.521172D-01  Symmetry=a

 Vector   11  Occ=0.000000D+00  E= 6.061289D-01  Symmetry=a

 Vector   12  Occ=0.000000D+00  E= 7.759487D-01  Symmetry=a

 Vector   13  Occ=0.000000D+00  E= 7.870866D-01  Symmetry=a

 Vector   14  Occ=0.000000D+00  E= 8.585822D-01  Symmetry=a

 Vector   15  Occ=0.000000D+00  E= 9.543438D-01  Symmetry=a

 Vector   16  Occ=0.000000D+00  E= 1.007237D+00  Symmetry=a

 Vector   17  Occ=0.000000D+00  E= 1.016518D+00  Symmetry=a

 Vector   18  Occ=0.000000D+00  E= 1.306240D+00  Symmetry=a

         Total SCF energy =    -75.908899167136

 Vector    2  Occ=2.000000D+00  E=-1.291701D+00

 Vector    3  Occ=2.000000D+00  E=-6.588580D-01

 Vector    4  Occ=2.000000D+00  E=-5.258359D-01

 Vector    5  Occ=2.000000D+00  E=-5.093686D-01

 Vector    6  Occ=0.000000D+00  E=-6.892733D-02

 Vector    7  Occ=0.000000D+00  E=-2.623794D-02

 Vector    8  Occ=0.000000D+00  E=-1.443780D-02

 Vector    9  Occ=0.000000D+00  E= 3.141798D-01

 Vector   10  Occ=0.000000D+00  E= 3.521172D-01

 Vector   11  Occ=0.000000D+00  E= 6.061289D-01

 Vector   12  Occ=0.000000D+00  E= 7.759487D-01

 Vector   13  Occ=0.000000D+00  E= 7.870866D-01

 Vector   14  Occ=0.000000D+00  E= 8.585822D-01

 Vector   15  Occ=0.000000D+00  E= 9.543438D-01

       Multipole analysis of the density wrt the origin
       ------------------------------------------------

     L   x y z        total         open         nuclear
     -   - - -        -----         ----         -------
     0   0 0 0     -0.000000      0.000000     10.000000

     1   1 0 0      0.558071      0.000000     -0.000000
     1   0 1 0      0.377426      0.000000      0.000000
     1   0 0 1      0.000005      0.000000      0.000000

     2   2 0 0     -4.440380      0.000000      2.679864
     2   1 1 0     -0.853046      0.000000     -1.516253
     2   1 0 1     -0.000005      0.000000      0.000000
     2   0 2 0     -2.840507      0.000000      8.590927
     2   0 1 1     -0.000004      0.000000      0.000000

 CCSD total energy / hartree       =       -76.218195152795346
 Total times  cpu:       32.6s     wall:       40.4s
