============================== echo of input deck ==============================
 echo
 start H2O
 title "H2O"

 memory total 24 gb

 geometry units bohr
 symmetry c1
        O  0.00000000  0.00000000  0.00000000
        H  0.00000000  3.5947275  0.00000000
        H  1.72558000 -0.64860000  0.00000000
 end

 basis spherical
   * library cc-pVTZ
 end

 mcscf
   active  8
   actelec 10
   multiplicity 1
   maxiter 40
   vectors input h2o.mos
   vectors output h2o.mos
 end

 task mcscf

 scf
   vectors input h2o.mos
   vectors output h2o-trash.mos
   noscf
 end

 tce
   2eorb
   2emet 13
   ccsd
   maxiter 300
 end

# set tce:print_integrals T
# set tce:qorb 8
# set tce:qela 5
# set tce:qelb 5

 set tce:qducc T
 set tce:nactv 3
 set tce:nonhf T
 set tce:ducc_model 3

 set tce:printtol 0.02

 task tce
================================================================================

 Output coordinates in a.u. (scale by  1.000000000 to convert to a.u.)

  No.       Tag          Charge          X              Y              Z
 ---- ---------------- ---------- -------------- -------------- --------------
    1 O                    8.0000    -0.17255800    -0.29461275     0.00000000
    2 H                    1.0000    -0.17255800     3.30011475     0.00000000
    3 H                    1.0000     1.55302200    -0.94321275     0.00000000

 Vector    1  Occ=1.999991D+00  E=-2.060430D+01  Symmetry=a

 Vector    2  Occ=1.998316D+00  E=-1.300545D+00  Symmetry=a

 Vector    3  Occ=1.983253D+00  E=-6.657197D-01  Symmetry=a

 Vector    4  Occ=1.974100D+00  E=-5.405541D-01  Symmetry=a

 Vector    5  Occ=1.667088D+00  E=-4.451834D-01  Symmetry=a

 Vector    6  Occ=3.340813D-01  E=-1.236580D-01  Symmetry=a

 Vector    7  Occ=2.687361D-02  E=-2.629577D-02  Symmetry=a

 Vector    8  Occ=1.629657D-02  E=-1.349180D-02  Symmetry=a

 Vector    9  Occ=0.000000D+00  E= 3.002379D-01  Symmetry=a

 Vector   10  Occ=0.000000D+00  E= 3.774184D-01  Symmetry=a

 Vector   11  Occ=0.000000D+00  E= 6.113823D-01  Symmetry=a

 Vector   12  Occ=0.000000D+00  E= 7.726188D-01  Symmetry=a

 Vector   13  Occ=0.000000D+00  E= 7.927450D-01  Symmetry=a

 Vector   14  Occ=0.000000D+00  E= 8.619647D-01  Symmetry=a

 Vector   15  Occ=0.000000D+00  E= 8.903071D-01  Symmetry=a

 Vector   16  Occ=0.000000D+00  E= 9.318764D-01  Symmetry=a

 Vector   17  Occ=0.000000D+00  E= 9.710276D-01  Symmetry=a

 Vector   18  Occ=0.000000D+00  E= 1.323990D+00  Symmetry=a

         Total SCF energy =    -75.827165562747

 Vector    2  Occ=2.000000D+00  E=-1.300545D+00

 Vector    3  Occ=2.000000D+00  E=-6.657197D-01

 Vector    4  Occ=2.000000D+00  E=-5.405541D-01

 Vector    5  Occ=2.000000D+00  E=-4.451834D-01

 Vector    6  Occ=0.000000D+00  E=-1.236580D-01

 Vector    7  Occ=0.000000D+00  E=-2.629577D-02

 Vector    8  Occ=0.000000D+00  E=-1.349180D-02

 Vector    9  Occ=0.000000D+00  E= 3.002379D-01

 Vector   10  Occ=0.000000D+00  E= 3.774184D-01

 Vector   11  Occ=0.000000D+00  E= 6.113823D-01

 Vector   12  Occ=0.000000D+00  E= 7.726188D-01

 Vector   13  Occ=0.000000D+00  E= 7.927450D-01

 Vector   14  Occ=0.000000D+00  E= 8.619647D-01

 Vector   15  Occ=0.000000D+00  E= 8.903071D-01

       Multipole analysis of the density wrt the origin
       ------------------------------------------------

     L   x y z        total         open         nuclear
     -   - - -        -----         ----         -------
     0   0 0 0     -0.000000      0.000000     10.000000

     1   1 0 0      0.566969      0.000000     -0.000000
     1   0 1 0      0.174992      0.000000      0.000000
     1   0 0 1      0.000000      0.000000      0.000000

     2   2 0 0     -4.503190      0.000000      2.679864
     2   1 1 0     -0.782048      0.000000     -1.627589
     2   1 0 1     -0.000000      0.000000      0.000000
     2   0 2 0     -3.027777      0.000000     12.474781
     2   0 1 1     -0.000000      0.000000      0.000000

 CCSD total energy / hartree       =       -76.165695267799123
 Total times  cpu:       34.5s     wall:       41.7s
