============================== echo of input deck ==============================
 echo
 start H2O
 title "H2O"

 memory total 24 gb

 geometry units bohr
 symmetry c1
        O  0.00000000  0.00000000  0.00000000
        H  0.00000000  4.3321075  0.00000000
        H  1.72558000 -0.64860000  0.00000000
 end

 basis spherical
   * library cc-pVTZ
 end

 mcscf
   active  8
   actelec 10
   multiplicity 1
   maxiter 40
   vectors input h2o.mos
   vectors output h2o.mos
 end

 task mcscf

 scf
   vectors input h2o.mos
   vectors output h2o-trash.mos
   noscf
 end

 tce
   2eorb
   2emet 13
   ccsd
   maxiter 300
 end

# set tce:print_integrals T
# set tce:qorb 8
# set tce:qela 5
# set tce:qelb 5

 set tce:qducc T
 set tce:nactv 3
 set tce:nonhf T
 set tce:ducc_model 3

 set tce:printtol 0.02

 task tce
================================================================================

 Output coordinates in a.u. (scale by  1.000000000 to convert to a.u.)

  No.       Tag          Charge          X              Y              Z
 ---- ---------------- ---------- -------------- -------------- --------------
    1 O                    8.0000    -0.17255800    -0.36835075     0.00000000
    2 H                    1.0000    -0.17255800     3.96375675     0.00000000
    3 H                    1.0000     1.55302200    -1.01695075     0.00000000

 Vector    1  Occ=1.999992D+00  E=-2.061111D+01  Symmetry=a

 Vector    2  Occ=1.998700D+00  E=-1.306453D+00  Symmetry=a

 Vector    3  Occ=1.984873D+00  E=-6.717163D-01  Symmetry=a

 Vector    4  Occ=1.974603D+00  E=-5.484120D-01  Symmetry=a

 Vector    5  Occ=1.405885D+00  E=-3.839445D-01  Symmetry=a

 Vector    6  Occ=5.945482D-01  E=-1.854575D-01  Symmetry=a

 Vector    7  Occ=2.649146D-02  E=-2.619709D-02  Symmetry=a

 Vector    8  Occ=1.490782D-02  E=-1.298002D-02  Symmetry=a

 Vector    9  Occ=0.000000D+00  E= 2.863276D-01  Symmetry=a

 Vector   10  Occ=0.000000D+00  E= 4.010946D-01  Symmetry=a

 Vector   11  Occ=0.000000D+00  E= 6.228191D-01  Symmetry=a

 Vector   12  Occ=0.000000D+00  E= 7.219315D-01  Symmetry=a

 Vector   13  Occ=0.000000D+00  E= 7.770053D-01  Symmetry=a

 Vector   14  Occ=0.000000D+00  E= 8.271735D-01  Symmetry=a

 Vector   15  Occ=0.000000D+00  E= 8.548285D-01  Symmetry=a

 Vector   16  Occ=0.000000D+00  E= 9.068191D-01  Symmetry=a

 Vector   17  Occ=0.000000D+00  E= 9.764883D-01  Symmetry=a

 Vector   18  Occ=0.000000D+00  E= 1.265852D+00  Symmetry=a

         Total SCF energy =    -75.755506370257

 Vector    2  Occ=2.000000D+00  E=-1.306453D+00

 Vector    3  Occ=2.000000D+00  E=-6.717163D-01

 Vector    4  Occ=2.000000D+00  E=-5.484120D-01

 Vector    5  Occ=2.000000D+00  E=-3.839445D-01

 Vector    6  Occ=0.000000D+00  E=-1.854575D-01

 Vector    7  Occ=0.000000D+00  E=-2.619709D-02

 Vector    8  Occ=0.000000D+00  E=-1.298002D-02

 Vector    9  Occ=0.000000D+00  E= 2.863276D-01

 Vector   10  Occ=0.000000D+00  E= 4.010946D-01

 Vector   11  Occ=0.000000D+00  E= 6.228191D-01

 Vector   12  Occ=0.000000D+00  E= 7.219315D-01

 Vector   13  Occ=0.000000D+00  E= 7.770053D-01

 Vector   14  Occ=0.000000D+00  E= 8.271735D-01

 Vector   15  Occ=0.000000D+00  E= 8.548285D-01

       Multipole analysis of the density wrt the origin
       ------------------------------------------------

     L   x y z        total         open         nuclear
     -   - - -        -----         ----         -------
     0   0 0 0     -0.000000      0.000000     10.000000

     1   1 0 0      0.584064      0.000000     -0.000000
     1   0 1 0     -0.012693      0.000000      0.000000
     1   0 0 1      0.000000      0.000000      0.000000

     2   2 0 0     -4.497670      0.000000      2.679864
     2   1 1 0     -0.692469      0.000000     -1.754830
     2   1 0 1     -0.000000      0.000000      0.000000
     2   0 2 0     -3.418880      0.000000     17.831015
     2   0 1 1     -0.000000      0.000000      0.000000

 CCSD total energy / hartree       =       -76.135435374069800
 Total times  cpu:       33.3s     wall:       39.6s
