============================== echo of input deck ==============================
 echo
 start H2O
 title "H2O"

 memory total 24 gb

 geometry units bohr
 symmetry c1
        O  0.00000000  0.00000000  0.00000000
        H  0.00000000  4.7007975  0.00000000
        H  1.72558000 -0.64860000  0.00000000
 end

 basis spherical
   * library cc-pVTZ
 end

 mcscf
   active  8
   actelec 10
   multiplicity 1
   maxiter 40
   vectors input h2o.mos
   vectors output h2o.mos
 end

 task mcscf

 scf
   vectors input h2o.mos
   vectors output h2o-trash.mos
   noscf
 end

 tce
   2eorb
   2emet 13
   ccsd
   maxiter 300
 end

# set tce:print_integrals T
# set tce:qorb 8
# set tce:qela 5
# set tce:qelb 5

 set tce:qducc T
 set tce:nactv 3
 set tce:nonhf T
 set tce:ducc_model 3

 set tce:printtol 0.02

 task tce
================================================================================

 Output coordinates in a.u. (scale by  1.000000000 to convert to a.u.)

  No.       Tag          Charge          X              Y              Z
 ---- ---------------- ---------- -------------- -------------- --------------
    1 O                    8.0000    -0.17255800    -0.40521975     0.00000000
    2 H                    1.0000    -0.17255800     4.29557775     0.00000000
    3 H                    1.0000     1.55302200    -1.05381975     0.00000000

 Vector    1  Occ=1.999992D+00  E=-2.061149D+01  Symmetry=a

 Vector    2  Occ=1.998801D+00  E=-1.307277D+00  Symmetry=a

 Vector    3  Occ=1.985228D+00  E=-6.725451D-01  Symmetry=a

 Vector    4  Occ=1.974734D+00  E=-5.495197D-01  Symmetry=a

 Vector    5  Occ=1.302859D+00  E=-3.632990D-01  Symmetry=a

 Vector    6  Occ=6.973892D-01  E=-2.072035D-01  Symmetry=a

 Vector    7  Occ=2.638878D-02  E=-2.615301D-02  Symmetry=a

 Vector    8  Occ=1.460807D-02  E=-1.286667D-02  Symmetry=a

 Vector    9  Occ=0.000000D+00  E= 2.815353D-01  Symmetry=a

 Vector   10  Occ=0.000000D+00  E= 4.100220D-01  Symmetry=a

 Vector   11  Occ=0.000000D+00  E= 6.296200D-01  Symmetry=a

 Vector   12  Occ=0.000000D+00  E= 6.920231D-01  Symmetry=a

 Vector   13  Occ=0.000000D+00  E= 7.818134D-01  Symmetry=a

 Vector   14  Occ=0.000000D+00  E= 8.194343D-01  Symmetry=a

 Vector   15  Occ=0.000000D+00  E= 8.446718D-01  Symmetry=a

 Vector   16  Occ=0.000000D+00  E= 8.970535D-01  Symmetry=a

 Vector   17  Occ=0.000000D+00  E= 9.835147D-01  Symmetry=a

 Vector   18  Occ=0.000000D+00  E= 1.211288D+00  Symmetry=a

         Total SCF energy =    -75.727828320771

 Vector    2  Occ=2.000000D+00  E=-1.307277D+00

 Vector    3  Occ=2.000000D+00  E=-6.725451D-01

 Vector    4  Occ=2.000000D+00  E=-5.495197D-01

 Vector    5  Occ=2.000000D+00  E=-3.632990D-01

 Vector    6  Occ=0.000000D+00  E=-2.072035D-01

 Vector    7  Occ=0.000000D+00  E=-2.615301D-02

 Vector    8  Occ=0.000000D+00  E=-1.286667D-02

 Vector    9  Occ=0.000000D+00  E= 2.815353D-01

 Vector   10  Occ=0.000000D+00  E= 4.100220D-01

 Vector   11  Occ=0.000000D+00  E= 6.296200D-01

 Vector   12  Occ=0.000000D+00  E= 6.920231D-01

 Vector   13  Occ=0.000000D+00  E= 7.818134D-01

 Vector   14  Occ=0.000000D+00  E= 8.194343D-01

 Vector   15  Occ=0.000000D+00  E= 8.446718D-01

       Multipole analysis of the density wrt the origin
       ------------------------------------------------

     L   x y z        total         open         nuclear
     -   - - -        -----         ----         -------
     0   0 0 0     -0.000000      0.000000     10.000000

     1   1 0 0      0.591600      0.000000     -0.000000
     1   0 1 0     -0.073900      0.000000     -0.000000
     1   0 0 1      0.000000      0.000000      0.000000

     2   2 0 0     -4.482226      0.000000      2.679864
     2   1 1 0     -0.663665      0.000000     -1.818450
     2   1 0 1     -0.000000      0.000000      0.000000
     2   0 2 0     -3.594959      0.000000     20.876149
     2   0 1 1     -0.000000      0.000000      0.000000

 CCSD total energy / hartree       =       -76.127821681837062
 Total times  cpu:       33.6s     wall:       40.0s
