============================== echo of input deck ==============================
 echo
 start H2O
 title "H2O"

 memory total 24 gb

 geometry units angstrom
 symmetry c1
   zmatrix
     O
     H1 O 0.97551
     H2 O 0.97551 H1 100.05
   end
 end

 basis spherical
   * library cc-pVTZ
 end

 tce
   2eorb
   2emet 13
   ccsd
   maxiter 300
 end

set tce:print_integrals T
set tce:qorb 8
set tce:qela 5
set tce:qelb 5

# set tce:qducc T
# set tce:nactv 3
# set tce:nonhf T
# set tce:ducc_model 6

 set tce:printtol 0.02

 task tce
================================================================================

 Output coordinates in angstroms (scale by  1.889725989 to convert to a.u.)

  No.       Tag          Charge          X              Y              Z
 ---- ---------------- ---------- -------------- -------------- --------------
    1 O                    8.0000    -0.09605416     0.00000000    -0.08052762
    2 H1                   1.0000    -0.09605416     0.00000000     0.89498238
    3 H2                   1.0000     0.86448746     0.00000000    -0.25076145

         Total SCF energy =    -76.054708204542

 Vector    2  Occ=2.000000D+00  E=-1.339765D+00

 Vector    3  Occ=2.000000D+00  E=-6.914376D-01

 Vector    4  Occ=2.000000D+00  E=-5.831001D-01

 Vector    5  Occ=2.000000D+00  E=-5.045451D-01

 Vector    6  Occ=0.000000D+00  E= 1.394387D-01

 Vector    7  Occ=0.000000D+00  E= 2.031820D-01

 Vector    8  Occ=0.000000D+00  E= 5.294660D-01

 Vector    9  Occ=0.000000D+00  E= 6.065755D-01

 Vector   10  Occ=0.000000D+00  E= 6.690321D-01

 Vector   11  Occ=0.000000D+00  E= 7.770448D-01

 Vector   12  Occ=0.000000D+00  E= 7.861143D-01

 Vector   13  Occ=0.000000D+00  E= 8.077868D-01

 Vector   14  Occ=0.000000D+00  E= 8.669754D-01

 Vector   15  Occ=0.000000D+00  E= 9.350425D-01

       Multipole analysis of the density wrt the origin
       ------------------------------------------------

     L   x y z        total         open         nuclear
     -   - - -        -----         ----         -------
     0   0 0 0     -0.000000      0.000000     10.000000

     1   1 0 0      0.636087      0.000000      0.000000
     1   0 1 0     -0.000000      0.000000      0.000000
     1   0 0 1      0.533267      0.000000      0.000000

     2   2 0 0     -3.915395      0.000000      2.965327
     2   1 1 0     -0.000000      0.000000      0.000000
     2   1 0 1     -0.588476      0.000000     -0.860151
     2   0 2 0     -5.450014      0.000000      0.000000
     2   0 1 1     -0.000000      0.000000      0.000000

 CCSD total energy / hartree       =       -76.063827920540177
 Total times  cpu:       29.9s     wall:       40.7s
