============================== echo of input deck ==============================
 echo
 start H2O
 title "H2O"

 memory total 24 gb

 geometry units angstrom
 symmetry c1
   zmatrix
     O
     H1 O 0.97551
     H2 O 0.97551 H1 100.90
   end
 end

 basis spherical
   * library cc-pVTZ
 end

 tce
   2eorb
   2emet 13
   ccsd
   maxiter 300
 end

set tce:print_integrals T
set tce:qorb 8
set tce:qela 5
set tce:qelb 5

# set tce:qducc T
# set tce:nactv 3
# set tce:nonhf T
# set tce:ducc_model 6

 set tce:printtol 0.02

 task tce
================================================================================

 Output coordinates in angstroms (scale by  1.889725989 to convert to a.u.)

  No.       Tag          Charge          X              Y              Z
 ---- ---------------- ---------- -------------- -------------- --------------
    1 O                    8.0000    -0.09579105     0.00000000    -0.07910455
    2 H1                   1.0000    -0.09579105     0.00000000     0.89640545
    3 H2                   1.0000     0.86211949     0.00000000    -0.26356905

         Total SCF energy =    -76.054905807988

 Vector    2  Occ=2.000000D+00  E=-1.339117D+00

 Vector    3  Occ=2.000000D+00  E=-6.930895D-01

 Vector    4  Occ=2.000000D+00  E=-5.814071D-01

 Vector    5  Occ=2.000000D+00  E=-5.042624D-01

 Vector    6  Occ=0.000000D+00  E= 1.396252D-01

 Vector    7  Occ=0.000000D+00  E= 2.030199D-01

 Vector    8  Occ=0.000000D+00  E= 5.307566D-01

 Vector    9  Occ=0.000000D+00  E= 6.038403D-01

 Vector   10  Occ=0.000000D+00  E= 6.694740D-01

 Vector   11  Occ=0.000000D+00  E= 7.805648D-01

 Vector   12  Occ=0.000000D+00  E= 7.863051D-01

 Vector   13  Occ=0.000000D+00  E= 8.072810D-01

 Vector   14  Occ=0.000000D+00  E= 8.650922D-01

 Vector   15  Occ=0.000000D+00  E= 9.384939D-01

       Multipole analysis of the density wrt the origin
       ------------------------------------------------

     L   x y z        total         open         nuclear
     -   - - -        -----         ----         -------
     0   0 0 0     -0.000000      0.000000     10.000000

     1   1 0 0      0.636038      0.000000      0.000000
     1   0 1 0      0.000000      0.000000      0.000000
     1   0 0 1      0.525242      0.000000     -0.000000

     2   2 0 0     -3.923487      0.000000      2.949104
     2   1 1 0      0.000000      0.000000      0.000000
     2   1 0 1     -0.610418      0.000000     -0.901606
     2   0 2 0     -5.450637      0.000000      0.000000
     2   0 1 1     -0.000000      0.000000      0.000000

 CCSD total energy / hartree       =       -76.063966478949297
 Total times  cpu:       31.2s     wall:       43.2s
