============================== echo of input deck ==============================
 echo
 start H2O
 title "H2O"

 memory total 24 gb

 geometry units angstrom
 symmetry c1
   zmatrix
     O
     H1 O 0.97551
     H2 O 0.97551 H1 100.0
   end
 end

 basis spherical
   * library cc-pVTZ
 end

 tce
   2eorb
   2emet 13
   ccsd
   maxiter 300
 end

set tce:print_integrals T
set tce:qorb 8
set tce:qela 5
set tce:qelb 5

# set tce:qducc T
# set tce:nactv 3
# set tce:nonhf T
# set tce:ducc_model 6

 set tce:printtol 0.02

 task tce
================================================================================

 Output coordinates in angstroms (scale by  1.889725989 to convert to a.u.)

  No.       Tag          Charge          X              Y              Z
 ---- ---------------- ---------- -------------- -------------- --------------
    1 O                    8.0000    -0.09606898     0.00000000    -0.08061145
    2 H1                   1.0000    -0.09606898     0.00000000     0.89489855
    3 H2                   1.0000     0.86462083     0.00000000    -0.25000698

         Total SCF energy =    -76.054695316272

 Vector    2  Occ=2.000000D+00  E=-1.339804D+00

 Vector    3  Occ=2.000000D+00  E=-6.913399D-01

 Vector    4  Occ=2.000000D+00  E=-5.831998D-01

 Vector    5  Occ=2.000000D+00  E=-5.045616D-01

 Vector    6  Occ=0.000000D+00  E= 1.394274D-01

 Vector    7  Occ=0.000000D+00  E= 2.031916D-01

 Vector    8  Occ=0.000000D+00  E= 5.293913D-01

 Vector    9  Occ=0.000000D+00  E= 6.067333D-01

 Vector   10  Occ=0.000000D+00  E= 6.690073D-01

 Vector   11  Occ=0.000000D+00  E= 7.768441D-01

 Vector   12  Occ=0.000000D+00  E= 7.861030D-01

 Vector   13  Occ=0.000000D+00  E= 8.078165D-01

 Vector   14  Occ=0.000000D+00  E= 8.670867D-01

 Vector   15  Occ=0.000000D+00  E= 9.348401D-01

       Multipole analysis of the density wrt the origin
       ------------------------------------------------

     L   x y z        total         open         nuclear
     -   - - -        -----         ----         -------
     0   0 0 0     -0.000000      0.000000     10.000000

     1   1 0 0      0.636086      0.000000      0.000000
     1   0 1 0     -0.000000      0.000000      0.000000
     1   0 0 1      0.533740      0.000000      0.000000

     2   2 0 0     -3.914940      0.000000      2.966242
     2   1 1 0      0.000000      0.000000      0.000000
     2   1 0 1     -0.587176      0.000000     -0.857695
     2   0 2 0     -5.449978      0.000000      0.000000
     2   0 1 1      0.000000      0.000000      0.000000

 CCSD total energy / hartree       =       -76.063818503268152
 Total times  cpu:       56.8s     wall:       78.2s
