============================== echo of input deck ==============================
 echo
 start H2O
 title "H2O"

 memory total 24 gb

 geometry units angstrom
 symmetry c1
   zmatrix
     O
     H1 O 0.97551
     H2 O 0.97551 H1 100.80
   end
 end

 basis spherical
   * library cc-pVTZ
 end

 tce
   2eorb
   2emet 13
   ccsd
   maxiter 300
 end

set tce:print_integrals T
set tce:qorb 8
set tce:qela 5
set tce:qelb 5

# set tce:qducc T
# set tce:nactv 3
# set tce:nonhf T
# set tce:ducc_model 6

 set tce:printtol 0.02

 task tce
================================================================================

 Output coordinates in angstroms (scale by  1.889725989 to convert to a.u.)

  No.       Tag          Charge          X              Y              Z
 ---- ---------------- ---------- -------------- -------------- --------------
    1 O                    8.0000    -0.09582310     0.00000000    -0.07927177
    2 H1                   1.0000    -0.09582310     0.00000000     0.89623823
    3 H2                   1.0000     0.86240793     0.00000000    -0.26206411

         Total SCF energy =    -76.054884660693

 Vector    2  Occ=2.000000D+00  E=-1.339193D+00

 Vector    3  Occ=2.000000D+00  E=-6.928961D-01

 Vector    4  Occ=2.000000D+00  E=-5.816060D-01

 Vector    5  Occ=2.000000D+00  E=-5.042958D-01

 Vector    6  Occ=0.000000D+00  E= 1.396038D-01

 Vector    7  Occ=0.000000D+00  E= 2.030390D-01

 Vector    8  Occ=0.000000D+00  E= 5.306028D-01

 Vector    9  Occ=0.000000D+00  E= 6.041670D-01

 Vector   10  Occ=0.000000D+00  E= 6.694199D-01

 Vector   11  Occ=0.000000D+00  E= 7.801403D-01

 Vector   12  Occ=0.000000D+00  E= 7.862827D-01

 Vector   13  Occ=0.000000D+00  E= 8.073407D-01

 Vector   14  Occ=0.000000D+00  E= 8.653129D-01

 Vector   15  Occ=0.000000D+00  E= 9.380867D-01

       Multipole analysis of the density wrt the origin
       ------------------------------------------------

     L   x y z        total         open         nuclear
     -   - - -        -----         ----         -------
     0   0 0 0     -0.000000      0.000000     10.000000

     1   1 0 0      0.636050      0.000000      0.000000
     1   0 1 0     -0.000000      0.000000      0.000000
     1   0 0 1      0.526186      0.000000      0.000000

     2   2 0 0     -3.922500      0.000000      2.951078
     2   1 1 0      0.000000      0.000000      0.000000
     2   1 0 1     -0.607852      0.000000     -0.896758
     2   0 2 0     -5.450563      0.000000      0.000000
     2   0 1 1     -0.000000      0.000000      0.000000

 CCSD total energy / hartree       =       -76.063952281339610
 Total times  cpu:       31.9s     wall:       44.0s
