============================== echo of input deck ==============================
 echo
 start H2O
 title "H2O"

 memory total 24 gb

 geometry units angstrom
 symmetry c1
   zmatrix
     O
     H1 O 0.97551
     H2 O 0.97551 H1 100.40
   end
 end

 basis spherical
   * library cc-pVTZ
 end

 tce
   2eorb
   2emet 13
   ccsd
   maxiter 300
 end

set tce:print_integrals T
set tce:qorb 8
set tce:qela 5
set tce:qelb 5

# set tce:qducc T
# set tce:nactv 3
# set tce:nonhf T
# set tce:ducc_model 6

 set tce:printtol 0.02

 task tce
================================================================================

 Output coordinates in angstroms (scale by  1.889725989 to convert to a.u.)

  No.       Tag          Charge          X              Y              Z
 ---- ---------------- ---------- -------------- -------------- --------------
    1 O                    8.0000    -0.09594838     0.00000000    -0.07994118
    2 H1                   1.0000    -0.09594838     0.00000000     0.89556882
    3 H2                   1.0000     0.86353542     0.00000000    -0.25603941

         Total SCF energy =    -76.054794479698

 Vector    2  Occ=2.000000D+00  E=-1.339498D+00

 Vector    3  Occ=2.000000D+00  E=-6.921200D-01

 Vector    4  Occ=2.000000D+00  E=-5.824025D-01

 Vector    5  Occ=2.000000D+00  E=-5.044290D-01

 Vector    6  Occ=0.000000D+00  E= 1.395167D-01

 Vector    7  Occ=0.000000D+00  E= 2.031153D-01

 Vector    8  Occ=0.000000D+00  E= 5.299929D-01

 Vector    9  Occ=0.000000D+00  E= 6.054610D-01

 Vector   10  Occ=0.000000D+00  E= 6.692093D-01

 Vector   11  Occ=0.000000D+00  E= 7.784698D-01

 Vector   12  Occ=0.000000D+00  E= 7.861930D-01

 Vector   13  Occ=0.000000D+00  E= 8.075788D-01

 Vector   14  Occ=0.000000D+00  E= 8.661979D-01

 Vector   15  Occ=0.000000D+00  E= 9.364611D-01

       Multipole analysis of the density wrt the origin
       ------------------------------------------------

     L   x y z        total         open         nuclear
     -   - - -        -----         ----         -------
     0   0 0 0     -0.000000      0.000000     10.000000

     1   1 0 0      0.636081      0.000000      0.000000
     1   0 1 0      0.000000      0.000000      0.000000
     1   0 0 1      0.529963      0.000000      0.000000

     2   2 0 0     -3.918647      0.000000      2.958799
     2   1 1 0     -0.000000      0.000000      0.000000
     2   1 0 1     -0.597545      0.000000     -0.877288
     2   0 2 0     -5.450268      0.000000      0.000000
     2   0 1 1      0.000000      0.000000      0.000000

 CCSD total energy / hartree       =       -76.063889891125314
 Total times  cpu:       31.0s     wall:       42.2s
