============================== echo of input deck ==============================
 echo
 start H2O
 title "H2O"

 memory total 24 gb

 geometry units angstrom
 symmetry c1
   zmatrix
     O
     H1 O 0.97551
     H2 O 0.97551 H1 100.55
   end
 end

 basis spherical
   * library cc-pVTZ
 end

 tce
   2eorb
   2emet 13
   ccsd
   maxiter 300
 end

set tce:print_integrals T
set tce:qorb 8
set tce:qela 5
set tce:qelb 5

# set tce:qducc T
# set tce:nactv 3
# set tce:nonhf T
# set tce:ducc_model 6

 set tce:printtol 0.02

 task tce
================================================================================

 Output coordinates in angstroms (scale by  1.889725989 to convert to a.u.)

  No.       Tag          Charge          X              Y              Z
 ---- ---------------- ---------- -------------- -------------- --------------
    1 O                    8.0000    -0.09590195     0.00000000    -0.07969005
    2 H1                   1.0000    -0.09590195     0.00000000     0.89581995
    3 H2                   1.0000     0.86311754     0.00000000    -0.25829959

         Total SCF energy =    -76.054829347658

 Vector    2  Occ=2.000000D+00  E=-1.339383D+00

 Vector    3  Occ=2.000000D+00  E=-6.924116D-01

 Vector    4  Occ=2.000000D+00  E=-5.821038D-01

 Vector    5  Occ=2.000000D+00  E=-5.043791D-01

 Vector    6  Occ=0.000000D+00  E= 1.395496D-01

 Vector    7  Occ=0.000000D+00  E= 2.030867D-01

 Vector    8  Occ=0.000000D+00  E= 5.302206D-01

 Vector    9  Occ=0.000000D+00  E= 6.049782D-01

 Vector   10  Occ=0.000000D+00  E= 6.692873D-01

 Vector   11  Occ=0.000000D+00  E= 7.790911D-01

 Vector   12  Occ=0.000000D+00  E= 7.862267D-01

 Vector   13  Occ=0.000000D+00  E= 8.074896D-01

 Vector   14  Occ=0.000000D+00  E= 8.658655D-01

 Vector   15  Occ=0.000000D+00  E= 9.370701D-01

       Multipole analysis of the density wrt the origin
       ------------------------------------------------

     L   x y z        total         open         nuclear
     -   - - -        -----         ----         -------
     0   0 0 0     -0.000000      0.000000     10.000000

     1   1 0 0      0.636072      0.000000     -0.000000
     1   0 1 0      0.000000      0.000000      0.000000
     1   0 0 1      0.528546      0.000000     -0.000000

     2   2 0 0     -3.920075      0.000000      2.955936
     2   1 1 0      0.000000      0.000000      0.000000
     2   1 0 1     -0.601418      0.000000     -0.884604
     2   0 2 0     -5.450378      0.000000      0.000000
     2   0 1 1      0.000000      0.000000      0.000000

 CCSD total energy / hartree       =       -76.063914339146109
 Total times  cpu:       32.2s     wall:       44.1s
