============================== echo of input deck ==============================
 echo
 start H2O
 title "H2O"

 memory total 24 gb

 geometry units angstrom
 symmetry c1
   zmatrix
     O
     H1 O 0.97551
     H2 O 0.97551 H1 100.10
   end
 end

 basis spherical
   * library cc-pVTZ
 end

 tce
   2eorb
   2emet 13
   ccsd
   maxiter 300
 end

set tce:print_integrals T
set tce:qorb 8
set tce:qela 5
set tce:qelb 5

# set tce:qducc T
# set tce:nactv 3
# set tce:nonhf T
# set tce:ducc_model 6

 set tce:printtol 0.02

 task tce
================================================================================

 Output coordinates in angstroms (scale by  1.889725989 to convert to a.u.)

  No.       Tag          Charge          X              Y              Z
 ---- ---------------- ---------- -------------- -------------- --------------
    1 O                    8.0000    -0.09603927     0.00000000    -0.08044380
    2 H1                   1.0000    -0.09603927     0.00000000     0.89506620
    3 H2                   1.0000     0.86435343     0.00000000    -0.25151580

         Total SCF energy =    -76.054720951801

 Vector    2  Occ=2.000000D+00  E=-1.339727D+00

 Vector    3  Occ=2.000000D+00  E=-6.915353D-01

 Vector    4  Occ=2.000000D+00  E=-5.830004D-01

 Vector    5  Occ=2.000000D+00  E=-5.045285D-01

 Vector    6  Occ=0.000000D+00  E= 1.394500D-01

 Vector    7  Occ=0.000000D+00  E= 2.031725D-01

 Vector    8  Occ=0.000000D+00  E= 5.295409D-01

 Vector    9  Occ=0.000000D+00  E= 6.064173D-01

 Vector   10  Occ=0.000000D+00  E= 6.690570D-01

 Vector   11  Occ=0.000000D+00  E= 7.772463D-01

 Vector   12  Occ=0.000000D+00  E= 7.861255D-01

 Vector   13  Occ=0.000000D+00  E= 8.077571D-01

 Vector   14  Occ=0.000000D+00  E= 8.668641D-01

 Vector   15  Occ=0.000000D+00  E= 9.352449D-01

       Multipole analysis of the density wrt the origin
       ------------------------------------------------

     L   x y z        total         open         nuclear
     -   - - -        -----         ----         -------
     0   0 0 0     -0.000000      0.000000     10.000000

     1   1 0 0      0.636087      0.000000      0.000000
     1   0 1 0      0.000000      0.000000      0.000000
     1   0 0 1      0.532795      0.000000     -0.000000

     2   2 0 0     -3.915853      0.000000      2.964407
     2   1 1 0      0.000000      0.000000      0.000000
     2   1 0 1     -0.589774      0.000000     -0.862605
     2   0 2 0     -5.450050      0.000000      0.000000
     2   0 1 1      0.000000      0.000000      0.000000

 CCSD total energy / hartree       =       -76.063837196514015
 Total times  cpu:       31.4s     wall:       43.1s
