============================== echo of input deck ==============================
 echo
 start H2O
 title "H2O"

 memory total 24 gb

 geometry units angstrom
 symmetry c1
   zmatrix
     O
     H1 O 0.97551
     H2 O 0.97551 H1 101.70
   end
 end

 basis spherical
   * library cc-pVTZ
 end

 tce
   2eorb
   2emet 13
   ccsd
   maxiter 300
 end

set tce:print_integrals T
set tce:qorb 8
set tce:qela 5
set tce:qelb 5

# set tce:qducc T
# set tce:nactv 3
# set tce:nonhf T
# set tce:ducc_model 6

 set tce:printtol 0.02

 task tce
================================================================================

 Output coordinates in angstroms (scale by  1.889725989 to convert to a.u.)

  No.       Tag          Charge          X              Y              Z
 ---- ---------------- ---------- -------------- -------------- --------------
    1 O                    8.0000    -0.09552416     0.00000000    -0.07776890
    2 H1                   1.0000    -0.09552416     0.00000000     0.89774110
    3 H2                   1.0000     0.85971748     0.00000000    -0.27558993

         Total SCF energy =    -76.055054971013

 Vector    2  Occ=2.000000D+00  E=-1.338512D+00

 Vector    3  Occ=2.000000D+00  E=-6.946273D-01

 Vector    4  Occ=2.000000D+00  E=-5.798169D-01

 Vector    5  Occ=2.000000D+00  E=-5.039942D-01

 Vector    6  Occ=0.000000D+00  E= 1.397918D-01

 Vector    7  Occ=0.000000D+00  E= 2.028676D-01

 Vector    8  Occ=0.000000D+00  E= 5.320052D-01

 Vector    9  Occ=0.000000D+00  E= 6.011843D-01

 Vector   10  Occ=0.000000D+00  E= 6.699267D-01

 Vector   11  Occ=0.000000D+00  E= 7.840573D-01

 Vector   12  Occ=0.000000D+00  E= 7.864834D-01

 Vector   13  Occ=0.000000D+00  E= 8.068020D-01

 Vector   14  Occ=0.000000D+00  E= 8.633356D-01

 Vector   15  Occ=0.000000D+00  E= 9.417608D-01

       Multipole analysis of the density wrt the origin
       ------------------------------------------------

     L   x y z        total         open         nuclear
     -   - - -        -----         ----         -------
     0   0 0 0     -0.000000      0.000000     10.000000

     1   1 0 0      0.635885      0.000000      0.000000
     1   0 1 0      0.000000      0.000000      0.000000
     1   0 0 1      0.517692      0.000000      0.000000

     2   2 0 0     -3.931705      0.000000      2.932693
     2   1 1 0      0.000000      0.000000      0.000000
     2   1 0 1     -0.630801      0.000000     -0.940100
     2   0 2 0     -5.451242      0.000000      0.000000
     2   0 1 1     -0.000000      0.000000      0.000000

 CCSD total energy / hartree       =       -76.064060023657277
 Total times  cpu:       38.3s     wall:       52.6s
