============================== echo of input deck ==============================
 echo
 start H2O
 title "H2O"

 memory total 24 gb

 geometry units angstrom
 symmetry c1
   zmatrix
     O
     H1 O 0.97551
     H2 O 0.97551 H1 101.10
   end
 end

 basis spherical
   * library cc-pVTZ
 end

 tce
   2eorb
   2emet 13
   ccsd
   maxiter 300
 end

set tce:print_integrals T
set tce:qorb 8
set tce:qela 5
set tce:qelb 5

# set tce:qducc T
# set tce:nactv 3
# set tce:nonhf T
# set tce:ducc_model 6

 set tce:printtol 0.02

 task tce
================================================================================

 Output coordinates in angstroms (scale by  1.889725989 to convert to a.u.)

  No.       Tag          Charge          X              Y              Z
 ---- ---------------- ---------- -------------- -------------- --------------
    1 O                    8.0000    -0.09572608     0.00000000    -0.07877029
    2 H1                   1.0000    -0.09572608     0.00000000     0.89673971
    3 H2                   1.0000     0.86153473     0.00000000    -0.26657739

         Total SCF energy =    -76.054946430131

 Vector    2  Occ=2.000000D+00  E=-1.338965D+00

 Vector    3  Occ=2.000000D+00  E=-6.934755D-01

 Vector    4  Occ=2.000000D+00  E=-5.810092D-01

 Vector    5  Occ=2.000000D+00  E=-5.041956D-01

 Vector    6  Occ=0.000000D+00  E= 1.396677D-01

 Vector    7  Occ=0.000000D+00  E= 2.029818D-01

 Vector    8  Occ=0.000000D+00  E= 5.310657D-01

 Vector    9  Occ=0.000000D+00  E= 6.031833D-01

 Vector   10  Occ=0.000000D+00  E= 6.695837D-01

 Vector   11  Occ=0.000000D+00  E= 7.814219D-01

 Vector   12  Occ=0.000000D+00  E= 7.863498D-01

 Vector   13  Occ=0.000000D+00  E= 8.071616D-01

 Vector   14  Occ=0.000000D+00  E= 8.646516D-01

 Vector   15  Occ=0.000000D+00  E= 9.393090D-01

       Multipole analysis of the density wrt the origin
       ------------------------------------------------

     L   x y z        total         open         nuclear
     -   - - -        -----         ----         -------
     0   0 0 0     -0.000000      0.000000     10.000000

     1   1 0 0      0.636009      0.000000      0.000000
     1   0 1 0      0.000000      0.000000      0.000000
     1   0 0 1      0.523354      0.000000      0.000000

     2   2 0 0     -3.925487      0.000000      2.945105
     2   1 1 0     -0.000000      0.000000      0.000000
     2   1 0 1     -0.615539      0.000000     -0.911279
     2   0 2 0     -5.450787      0.000000      0.000000
     2   0 1 1     -0.000000      0.000000      0.000000

 CCSD total energy / hartree       =       -76.063993199691524
 Total times  cpu:       33.2s     wall:       44.9s
