============================== echo of input deck ==============================
 echo
 start H2O
 title "H2O"

 memory total 24 gb

 geometry units angstrom
 symmetry c1
   zmatrix
     O
     H1 O 0.97551
     H2 O 0.97551 H1 101.15
   end
 end

 basis spherical
   * library cc-pVTZ
 end

 tce
   2eorb
   2emet 13
   ccsd
   maxiter 300
 end

set tce:print_integrals T
set tce:qorb 8
set tce:qela 5
set tce:qelb 5

# set tce:qducc T
# set tce:nactv 3
# set tce:nonhf T
# set tce:ducc_model 6

 set tce:printtol 0.02

 task tce
================================================================================

 Output coordinates in angstroms (scale by  1.889725989 to convert to a.u.)

  No.       Tag          Charge          X              Y              Z
 ---- ---------------- ---------- -------------- -------------- --------------
    1 O                    8.0000    -0.09570965     0.00000000    -0.07868676
    2 H1                   1.0000    -0.09570965     0.00000000     0.89682324
    3 H2                   1.0000     0.86138689     0.00000000    -0.26732916

         Total SCF energy =    -76.054956237768

 Vector    2  Occ=2.000000D+00  E=-1.338928D+00

 Vector    3  Occ=2.000000D+00  E=-6.935718D-01

 Vector    4  Occ=2.000000D+00  E=-5.809098D-01

 Vector    5  Occ=2.000000D+00  E=-5.041789D-01

 Vector    6  Occ=0.000000D+00  E= 1.396782D-01

 Vector    7  Occ=0.000000D+00  E= 2.029723D-01

 Vector    8  Occ=0.000000D+00  E= 5.311433D-01

 Vector    9  Occ=0.000000D+00  E= 6.030183D-01

 Vector   10  Occ=0.000000D+00  E= 6.696115D-01

 Vector   11  Occ=0.000000D+00  E= 7.816379D-01

 Vector   12  Occ=0.000000D+00  E= 7.863609D-01

 Vector   13  Occ=0.000000D+00  E= 8.071317D-01

 Vector   14  Occ=0.000000D+00  E= 8.645416D-01

 Vector   15  Occ=0.000000D+00  E= 9.395129D-01

       Multipole analysis of the density wrt the origin
       ------------------------------------------------

     L   x y z        total         open         nuclear
     -   - - -        -----         ----         -------
     0   0 0 0     -0.000000      0.000000     10.000000

     1   1 0 0      0.636001      0.000000     -0.000000
     1   0 1 0      0.000000      0.000000      0.000000
     1   0 0 1      0.522882      0.000000     -0.000000

     2   2 0 0     -3.925992      0.000000      2.944094
     2   1 1 0      0.000000      0.000000      0.000000
     2   1 0 1     -0.616817      0.000000     -0.913692
     2   0 2 0     -5.450824      0.000000      0.000000
     2   0 1 1      0.000000      0.000000      0.000000

 CCSD total energy / hartree       =       -76.063999531591847
 Total times  cpu:       31.9s     wall:       43.9s
