============================== echo of input deck ==============================
 echo
 start H2O
 title "H2O"

 memory total 24 gb

 geometry units angstrom
 symmetry c1
   zmatrix
     O
     H1 O 0.97551
     H2 O 0.97551 H1 101.85
   end
 end

 basis spherical
   * library cc-pVTZ
 end

 tce
   2eorb
   2emet 13
   ccsd
   maxiter 300
 end

set tce:print_integrals T
set tce:qorb 8
set tce:qela 5
set tce:qelb 5

# set tce:qducc T
# set tce:nactv 3
# set tce:nonhf T
# set tce:ducc_model 6

 set tce:printtol 0.02

 task tce
================================================================================

 Output coordinates in angstroms (scale by  1.889725989 to convert to a.u.)

  No.       Tag          Charge          X              Y              Z
 ---- ---------------- ---------- -------------- -------------- --------------
    1 O                    8.0000    -0.09547205     0.00000000    -0.07751888
    2 H1                   1.0000    -0.09547205     0.00000000     0.89799112
    3 H2                   1.0000     0.85924843     0.00000000    -0.27784005

         Total SCF energy =    -76.055078996478

 Vector    2  Occ=2.000000D+00  E=-1.338399D+00

 Vector    3  Occ=2.000000D+00  E=-6.949137D-01

 Vector    4  Occ=2.000000D+00  E=-5.795191D-01

 Vector    5  Occ=2.000000D+00  E=-5.039437D-01

 Vector    6  Occ=0.000000D+00  E= 1.398221D-01

 Vector    7  Occ=0.000000D+00  E= 2.028391D-01

 Vector    8  Occ=0.000000D+00  E= 5.322430D-01

 Vector    9  Occ=0.000000D+00  E= 6.006784D-01

 Vector   10  Occ=0.000000D+00  E= 6.700158D-01

 Vector   11  Occ=0.000000D+00  E= 7.847309D-01

 Vector   12  Occ=0.000000D+00  E= 7.865168D-01

 Vector   13  Occ=0.000000D+00  E= 8.067118D-01

 Vector   14  Occ=0.000000D+00  E= 8.630079D-01

 Vector   15  Occ=0.000000D+00  E= 9.423752D-01

       Multipole analysis of the density wrt the origin
       ------------------------------------------------

     L   x y z        total         open         nuclear
     -   - - -        -----         ----         -------
     0   0 0 0     -0.000000      0.000000     10.000000

     1   1 0 0      0.635845      0.000000      0.000000
     1   0 1 0      0.000000      0.000000      0.000000
     1   0 0 1      0.516277      0.000000      0.000000

     2   2 0 0     -3.933310      0.000000      2.929494
     2   1 1 0      0.000000      0.000000      0.000000
     2   1 0 1     -0.634593      0.000000     -0.947259
     2   0 2 0     -5.451357      0.000000      0.000000
     2   0 1 1      0.000000      0.000000      0.000000

 CCSD total energy / hartree       =       -76.064073617772394
 Total times  cpu:       43.7s     wall:       58.9s
