============================== echo of input deck ==============================
 echo
 start H2O
 title "H2O"

 memory total 24 gb

 geometry units angstrom
 symmetry c1
   zmatrix
     O
     H1 O 0.97551
     H2 O 0.97551 H1 101.60
   end
 end

 basis spherical
   * library cc-pVTZ
 end

 tce
   2eorb
   2emet 13
   ccsd
   maxiter 300
 end

set tce:print_integrals T
set tce:qorb 8
set tce:qela 5
set tce:qelb 5

# set tce:qducc T
# set tce:nactv 3
# set tce:nonhf T
# set tce:ducc_model 6

 set tce:printtol 0.02

 task tce
================================================================================

 Output coordinates in angstroms (scale by  1.889725989 to convert to a.u.)

  No.       Tag          Charge          X              Y              Z
 ---- ---------------- ---------- -------------- -------------- --------------
    1 O                    8.0000    -0.09555855     0.00000000    -0.07793565
    2 H1                   1.0000    -0.09555855     0.00000000     0.89757435
    3 H2                   1.0000     0.86002691     0.00000000    -0.27408917

         Total SCF energy =    -76.055038264548

 Vector    2  Occ=2.000000D+00  E=-1.338587D+00

 Vector    3  Occ=2.000000D+00  E=-6.944359D-01

 Vector    4  Occ=2.000000D+00  E=-5.800155D-01

 Vector    5  Occ=2.000000D+00  E=-5.040279D-01

 Vector    6  Occ=0.000000D+00  E= 1.397715D-01

 Vector    7  Occ=0.000000D+00  E= 2.028866D-01

 Vector    8  Occ=0.000000D+00  E= 5.318474D-01

 Vector    9  Occ=0.000000D+00  E= 6.015202D-01

 Vector   10  Occ=0.000000D+00  E= 6.698681D-01

 Vector   11  Occ=0.000000D+00  E= 7.836115D-01

 Vector   12  Occ=0.000000D+00  E= 7.864612D-01

 Vector   13  Occ=0.000000D+00  E= 8.068621D-01

 Vector   14  Occ=0.000000D+00  E= 8.635543D-01

 Vector   15  Occ=0.000000D+00  E= 9.413515D-01

       Multipole analysis of the density wrt the origin
       ------------------------------------------------

     L   x y z        total         open         nuclear
     -   - - -        -----         ----         -------
     0   0 0 0     -0.000000      0.000000     10.000000

     1   1 0 0      0.635910      0.000000     -0.000000
     1   0 1 0      0.000000      0.000000      0.000000
     1   0 0 1      0.518636      0.000000      0.000000

     2   2 0 0     -3.930646      0.000000      2.934805
     2   1 1 0     -0.000000      0.000000      0.000000
     2   1 0 1     -0.628268      0.000000     -0.935318
     2   0 2 0     -5.451165      0.000000      0.000000
     2   0 1 1     -0.000000      0.000000      0.000000

 CCSD total energy / hartree       =       -76.064050271052778
 Total times  cpu:       39.5s     wall:       54.5s
