============================== echo of input deck ==============================
 echo
 start H2O
 title "H2O"

 memory total 24 gb

 geometry units angstrom
 symmetry c1
   zmatrix
     O
     H1 O 0.97551
     H2 O 0.97551 H1 101.40
   end
 end

 basis spherical
   * library cc-pVTZ
 end

 tce
   2eorb
   2emet 13
   ccsd
   maxiter 300
 end

set tce:print_integrals T
set tce:qorb 8
set tce:qela 5
set tce:qelb 5

# set tce:qducc T
# set tce:nactv 3
# set tce:nonhf T
# set tce:ducc_model 6

 set tce:printtol 0.02

 task tce
================================================================================

 Output coordinates in angstroms (scale by  1.889725989 to convert to a.u.)

  No.       Tag          Charge          X              Y              Z
 ---- ---------------- ---------- -------------- -------------- --------------
    1 O                    8.0000    -0.09562643     0.00000000    -0.07826933
    2 H1                   1.0000    -0.09562643     0.00000000     0.89724067
    3 H2                   1.0000     0.86063790     0.00000000    -0.27108604

         Total SCF energy =    -76.055003193468

 Vector    2  Occ=2.000000D+00  E=-1.338738D+00

 Vector    3  Occ=2.000000D+00  E=-6.940525D-01

 Vector    4  Occ=2.000000D+00  E=-5.804128D-01

 Vector    5  Occ=2.000000D+00  E=-5.040951D-01

 Vector    6  Occ=0.000000D+00  E= 1.397304D-01

 Vector    7  Occ=0.000000D+00  E= 2.029247D-01

 Vector    8  Occ=0.000000D+00  E= 5.315332D-01

 Vector    9  Occ=0.000000D+00  E= 6.021888D-01

 Vector   10  Occ=0.000000D+00  E= 6.697526D-01

 Vector   11  Occ=0.000000D+00  E= 7.827277D-01

 Vector   12  Occ=0.000000D+00  E= 7.864167D-01

 Vector   13  Occ=0.000000D+00  E= 8.069821D-01

 Vector   14  Occ=0.000000D+00  E= 8.639925D-01

 Vector   15  Occ=0.000000D+00  E= 9.405337D-01

       Multipole analysis of the density wrt the origin
       ------------------------------------------------

     L   x y z        total         open         nuclear
     -   - - -        -----         ----         -------
     0   0 0 0     -0.000000      0.000000     10.000000

     1   1 0 0      0.635955      0.000000      0.000000
     1   0 1 0      0.000000      0.000000      0.000000
     1   0 0 1      0.520523      0.000000     -0.000000

     2   2 0 0     -3.928555      0.000000      2.938976
     2   1 1 0     -0.000000      0.000000      0.000000
     2   1 0 1     -0.623189      0.000000     -0.925727
     2   0 2 0     -5.451013      0.000000      0.000000
     2   0 1 1     -0.000000      0.000000      0.000000

 CCSD total energy / hartree       =       -76.064029106589075
 Total times  cpu:       35.3s     wall:       48.5s
