============================== echo of input deck ==============================
 echo
 start H2O
 title "H2O"

 memory total 24 gb

 geometry units angstrom
 symmetry c1
   zmatrix
     O
     H1 O 0.97551
     H2 O 0.97551 H1 101.00
   end
 end

 basis spherical
   * library cc-pVTZ
 end

 tce
   2eorb
   2emet 13
   ccsd
   maxiter 300
 end

set tce:print_integrals T
set tce:qorb 8
set tce:qela 5
set tce:qelb 5

# set tce:qducc T
# set tce:nactv 3
# set tce:nonhf T
# set tce:ducc_model 6

 set tce:printtol 0.02

 task tce
================================================================================

 Output coordinates in angstroms (scale by  1.889725989 to convert to a.u.)

  No.       Tag          Charge          X              Y              Z
 ---- ---------------- ---------- -------------- -------------- --------------
    1 O                    8.0000    -0.09575871     0.00000000    -0.07893739
    2 H1                   1.0000    -0.09575871     0.00000000     0.89657261
    3 H2                   1.0000     0.86182842     0.00000000    -0.26507347

         Total SCF energy =    -76.054926397509

 Vector    2  Occ=2.000000D+00  E=-1.339041D+00

 Vector    3  Occ=2.000000D+00  E=-6.932826D-01

 Vector    4  Occ=2.000000D+00  E=-5.812081D-01

 Vector    5  Occ=2.000000D+00  E=-5.042290D-01

 Vector    6  Occ=0.000000D+00  E= 1.396465D-01

 Vector    7  Occ=0.000000D+00  E= 2.030009D-01

 Vector    8  Occ=0.000000D+00  E= 5.309109D-01

 Vector    9  Occ=0.000000D+00  E= 6.035124D-01

 Vector   10  Occ=0.000000D+00  E= 6.695286D-01

 Vector   11  Occ=0.000000D+00  E= 7.809920D-01

 Vector   12  Occ=0.000000D+00  E= 7.863274D-01

 Vector   13  Occ=0.000000D+00  E= 8.072213D-01

 Vector   14  Occ=0.000000D+00  E= 8.648718D-01

 Vector   15  Occ=0.000000D+00  E= 9.389013D-01

       Multipole analysis of the density wrt the origin
       ------------------------------------------------

     L   x y z        total         open         nuclear
     -   - - -        -----         ----         -------
     0   0 0 0     -0.000000      0.000000     10.000000

     1   1 0 0      0.636025      0.000000      0.000000
     1   0 1 0     -0.000000      0.000000      0.000000
     1   0 0 1      0.524298      0.000000     -0.000000

     2   2 0 0     -3.924482      0.000000      2.947113
     2   1 1 0      0.000000      0.000000      0.000000
     2   1 0 1     -0.612981      0.000000     -0.906447
     2   0 2 0     -5.450712      0.000000      0.000000
     2   0 1 1      0.000000      0.000000      0.000000

 CCSD total energy / hartree       =       -76.063980118092118
 Total times  cpu:       31.3s     wall:       43.5s
