============================== echo of input deck ==============================
 echo
 start H2O
 title "H2O"

 memory total 24 gb

 geometry units angstrom
 symmetry c1
   zmatrix
     O
     H1 O 0.97551
     H2 O 0.97551 H1 101.80
   end
 end

 basis spherical
   * library cc-pVTZ
 end

 tce
   2eorb
   2emet 13
   ccsd
   maxiter 300
 end

set tce:print_integrals T
set tce:qorb 8
set tce:qela 5
set tce:qelb 5

# set tce:qducc T
# set tce:nactv 3
# set tce:nonhf T
# set tce:ducc_model 6

 set tce:printtol 0.02

 task tce
================================================================================

 Output coordinates in angstroms (scale by  1.889725989 to convert to a.u.)

  No.       Tag          Charge          X              Y              Z
 ---- ---------------- ---------- -------------- -------------- --------------
    1 O                    8.0000    -0.09548949     0.00000000    -0.07760221
    2 H1                   1.0000    -0.09548949     0.00000000     0.89790779
    3 H2                   1.0000     0.85940543     0.00000000    -0.27709015

         Total SCF energy =    -76.055071125732

 Vector    2  Occ=2.000000D+00  E=-1.338437D+00

 Vector    3  Occ=2.000000D+00  E=-6.948183D-01

 Vector    4  Occ=2.000000D+00  E=-5.796184D-01

 Vector    5  Occ=2.000000D+00  E=-5.039606D-01

 Vector    6  Occ=0.000000D+00  E= 1.398120D-01

 Vector    7  Occ=0.000000D+00  E= 2.028486D-01

 Vector    8  Occ=0.000000D+00  E= 5.321636D-01

 Vector    9  Occ=0.000000D+00  E= 6.008473D-01

 Vector   10  Occ=0.000000D+00  E= 6.699860D-01

 Vector   11  Occ=0.000000D+00  E= 7.845057D-01

 Vector   12  Occ=0.000000D+00  E= 7.865057D-01

 Vector   13  Occ=0.000000D+00  E= 8.067419D-01

 Vector   14  Occ=0.000000D+00  E= 8.631171D-01

 Vector   15  Occ=0.000000D+00  E= 9.421704D-01

       Multipole analysis of the density wrt the origin
       ------------------------------------------------

     L   x y z        total         open         nuclear
     -   - - -        -----         ----         -------
     0   0 0 0     -0.000000      0.000000     10.000000

     1   1 0 0      0.635859      0.000000      0.000000
     1   0 1 0      0.000000      0.000000      0.000000
     1   0 0 1      0.516749      0.000000      0.000000

     2   2 0 0     -3.932773      0.000000      2.930565
     2   1 1 0      0.000000      0.000000      0.000000
     2   1 0 1     -0.633330      0.000000     -0.944875
     2   0 2 0     -5.451319      0.000000      0.000000
     2   0 1 1      0.000000      0.000000      0.000000

 CCSD total energy / hartree       =       -76.064069224209561
 Total times  cpu:       38.9s     wall:       52.7s
