============================== echo of input deck ==============================
 echo
 start H2O
 title "H2O"

 memory total 24 gb

 geometry units angstrom
 symmetry c1
   zmatrix
     O
     H1 O 0.97551
     H2 O 0.97551 H1 101.55
   end
 end

 basis spherical
   * library cc-pVTZ
 end

 tce
   2eorb
   2emet 13
   ccsd
   maxiter 300
 end

set tce:print_integrals T
set tce:qorb 8
set tce:qela 5
set tce:qelb 5

# set tce:qducc T
# set tce:nactv 3
# set tce:nonhf T
# set tce:ducc_model 6

 set tce:printtol 0.02

 task tce
================================================================================

 Output coordinates in angstroms (scale by  1.889725989 to convert to a.u.)

  No.       Tag          Charge          X              Y              Z
 ---- ---------------- ---------- -------------- -------------- --------------
    1 O                    8.0000    -0.09557563     0.00000000    -0.07801905
    2 H1                   1.0000    -0.09557563     0.00000000     0.89749095
    3 H2                   1.0000     0.86018064     0.00000000    -0.27333859

         Total SCF energy =    -76.055029704202

 Vector    2  Occ=2.000000D+00  E=-1.338625D+00

 Vector    3  Occ=2.000000D+00  E=-6.943402D-01

 Vector    4  Occ=2.000000D+00  E=-5.801148D-01

 Vector    5  Occ=2.000000D+00  E=-5.040447D-01

 Vector    6  Occ=0.000000D+00  E= 1.397612D-01

 Vector    7  Occ=0.000000D+00  E= 2.028961D-01

 Vector    8  Occ=0.000000D+00  E= 5.317686D-01

 Vector    9  Occ=0.000000D+00  E= 6.016878D-01

 Vector   10  Occ=0.000000D+00  E= 6.698390D-01

 Vector   11  Occ=0.000000D+00  E= 7.833896D-01

 Vector   12  Occ=0.000000D+00  E= 7.864501D-01

 Vector   13  Occ=0.000000D+00  E= 8.068921D-01

 Vector   14  Occ=0.000000D+00  E= 8.636638D-01

 Vector   15  Occ=0.000000D+00  E= 9.411470D-01

       Multipole analysis of the density wrt the origin
       ------------------------------------------------

     L   x y z        total         open         nuclear
     -   - - -        -----         ----         -------
     0   0 0 0     -0.000000      0.000000     10.000000

     1   1 0 0      0.635922      0.000000      0.000000
     1   0 1 0     -0.000000      0.000000      0.000000
     1   0 0 1      0.519107      0.000000      0.000000

     2   2 0 0     -3.930120      0.000000      2.935854
     2   1 1 0     -0.000000      0.000000      0.000000
     2   1 0 1     -0.627000      0.000000     -0.932923
     2   0 2 0     -5.451127      0.000000      0.000000
     2   0 1 1      0.000000      0.000000      0.000000

 CCSD total energy / hartree       =       -76.064045187508455
 Total times  cpu:       36.5s     wall:       49.4s
