============================== echo of input deck ==============================
 echo
 start H2O
 title "H2O"

 memory total 24 gb

 geometry units angstrom
 symmetry c1
   zmatrix
     O
     H1 O 0.97551
     H2 O 0.97551 H1 102.65
   end
 end

 basis spherical
   * library cc-pVTZ
 end

 tce
   2eorb
   2emet 13
   ccsd
   maxiter 300
 end

set tce:print_integrals T
set tce:qorb 8
set tce:qela 5
set tce:qelb 5

# set tce:qducc T
# set tce:nactv 3
# set tce:nonhf T
# set tce:ducc_model 6

 set tce:printtol 0.02

 task tce
================================================================================

 Output coordinates in angstroms (scale by  1.889725989 to convert to a.u.)

  No.       Tag          Charge          X              Y              Z
 ---- ---------------- ---------- -------------- -------------- --------------
    1 O                    8.0000    -0.09518305     0.00000000    -0.07618784
    2 H1                   1.0000    -0.09518305     0.00000000     0.89932216
    3 H2                   1.0000     0.85664744     0.00000000    -0.28981946

         Total SCF energy =    -76.055186273861

 Vector    2  Occ=2.000000D+00  E=-1.337799D+00

 Vector    3  Occ=2.000000D+00  E=-6.964317D-01

 Vector    4  Occ=2.000000D+00  E=-5.779328D-01

 Vector    5  Occ=2.000000D+00  E=-5.036730D-01

 Vector    6  Occ=0.000000D+00  E= 1.399783D-01

 Vector    7  Occ=0.000000D+00  E= 2.026869D-01

 Vector    8  Occ=0.000000D+00  E= 5.335301D-01

 Vector    9  Occ=0.000000D+00  E= 5.979428D-01

 Vector   10  Occ=0.000000D+00  E= 6.705136D-01

 Vector   11  Occ=0.000000D+00  E= 7.866940D-01

 Vector   12  Occ=0.000000D+00  E= 7.884200D-01

 Vector   13  Occ=0.000000D+00  E= 8.062281D-01

 Vector   14  Occ=0.000000D+00  E= 8.612695D-01

 Vector   15  Occ=0.000000D+00  E= 9.456613D-01

       Multipole analysis of the density wrt the origin
       ------------------------------------------------

     L   x y z        total         open         nuclear
     -   - - -        -----         ----         -------
     0   0 0 0     -0.000000      0.000000     10.000000

     1   1 0 0      0.635568      0.000000      0.000000
     1   0 1 0      0.000000      0.000000      0.000000
     1   0 0 1      0.508731      0.000000     -0.000000

     2   2 0 0     -3.942215      0.000000      2.911786
     2   1 1 0     -0.000000      0.000000      0.000000
     2   1 0 1     -0.654646      0.000000     -0.985110
     2   0 2 0     -5.451982      0.000000      0.000000
     2   0 1 1     -0.000000      0.000000      0.000000

 CCSD total energy / hartree       =       -76.064125256126118
 Total times  cpu:       45.3s     wall:       61.5s
