============================== echo of input deck ==============================
 echo
 start H2O
 title "H2O"

 memory total 24 gb

 geometry units angstrom
 symmetry c1
   zmatrix
     O
     H1 O 0.97551
     H2 O 0.97551 H1 102.55
   end
 end

 basis spherical
   * library cc-pVTZ
 end

 tce
   2eorb
   2emet 13
   ccsd
   maxiter 300
 end

set tce:print_integrals T
set tce:qorb 8
set tce:qela 5
set tce:qelb 5

# set tce:qducc T
# set tce:nactv 3
# set tce:nonhf T
# set tce:ducc_model 6

 set tce:printtol 0.02

 task tce
================================================================================

 Output coordinates in angstroms (scale by  1.889725989 to convert to a.u.)

  No.       Tag          Charge          X              Y              Z
 ---- ---------------- ---------- -------------- -------------- --------------
    1 O                    8.0000    -0.09522019     0.00000000    -0.07635400
    2 H1                   1.0000    -0.09522019     0.00000000     0.89915600
    3 H2                   1.0000     0.85698171     0.00000000    -0.28832404

         Total SCF energy =    -76.055174777733

 Vector    2  Occ=2.000000D+00  E=-1.337874D+00

 Vector    3  Occ=2.000000D+00  E=-6.962429D-01

 Vector    4  Occ=2.000000D+00  E=-5.781309D-01

 Vector    5  Occ=2.000000D+00  E=-5.037069D-01

 Vector    6  Occ=0.000000D+00  E= 1.399593D-01

 Vector    7  Occ=0.000000D+00  E= 2.027059D-01

 Vector    8  Occ=0.000000D+00  E= 5.333675D-01

 Vector    9  Occ=0.000000D+00  E= 5.982880D-01

 Vector   10  Occ=0.000000D+00  E= 6.704493D-01

 Vector   11  Occ=0.000000D+00  E= 7.866719D-01

 Vector   12  Occ=0.000000D+00  E= 7.879501D-01

 Vector   13  Occ=0.000000D+00  E= 8.062888D-01

 Vector   14  Occ=0.000000D+00  E= 8.614860D-01

 Vector   15  Occ=0.000000D+00  E= 9.452497D-01

       Multipole analysis of the density wrt the origin
       ------------------------------------------------

     L   x y z        total         open         nuclear
     -   - - -        -----         ----         -------
     0   0 0 0     -0.000000      0.000000     10.000000

     1   1 0 0      0.635609      0.000000      0.000000
     1   0 1 0      0.000000      0.000000      0.000000
     1   0 0 1      0.509674      0.000000      0.000000

     2   2 0 0     -3.941070      0.000000      2.914059
     2   1 1 0      0.000000      0.000000      0.000000
     2   1 0 1     -0.652155      0.000000     -0.980410
     2   0 2 0     -5.451903      0.000000      0.000000
     2   0 1 1      0.000000      0.000000      0.000000

 CCSD total energy / hartree       =       -76.064120714902856
 Total times  cpu:       44.6s     wall:       60.3s
