============================== echo of input deck ==============================
 echo
 start H2O
 title "H2O"

 memory total 24 gb

 geometry units angstrom
 symmetry c1
   zmatrix
     O
     H1 O 0.97551
     H2 O 0.97551 H1 102.80
   end
 end

 basis spherical
   * library cc-pVTZ
 end

 tce
   2eorb
   2emet 13
   ccsd
   maxiter 300
 end

set tce:print_integrals T
set tce:qorb 8
set tce:qela 5
set tce:qelb 5

# set tce:qducc T
# set tce:nactv 3
# set tce:nonhf T
# set tce:ducc_model 6

 set tce:printtol 0.02

 task tce
================================================================================

 Output coordinates in angstroms (scale by  1.889725989 to convert to a.u.)

  No.       Tag          Charge          X              Y              Z
 ---- ---------------- ---------- -------------- -------------- --------------
    1 O                    8.0000    -0.09512679     0.00000000    -0.07593872
    2 H1                   1.0000    -0.09512679     0.00000000     0.89957128
    3 H2                   1.0000     0.85614115     0.00000000    -0.29206150

         Total SCF energy =    -76.055202497561

 Vector    2  Occ=2.000000D+00  E=-1.337687D+00

 Vector    3  Occ=2.000000D+00  E=-6.967145D-01

 Vector    4  Occ=2.000000D+00  E=-5.776357D-01

 Vector    5  Occ=2.000000D+00  E=-5.036220D-01

 Vector    6  Occ=0.000000D+00  E= 1.400067D-01

 Vector    7  Occ=0.000000D+00  E= 2.026584D-01

 Vector    8  Occ=0.000000D+00  E= 5.337750D-01

 Vector    9  Occ=0.000000D+00  E= 5.974233D-01

 Vector   10  Occ=0.000000D+00  E= 6.706114D-01

 Vector   11  Occ=0.000000D+00  E= 7.867271D-01

 Vector   12  Occ=0.000000D+00  E= 7.891295D-01

 Vector   13  Occ=0.000000D+00  E= 8.061368D-01

 Vector   14  Occ=0.000000D+00  E= 8.609453D-01

 Vector   15  Occ=0.000000D+00  E= 9.462791D-01

       Multipole analysis of the density wrt the origin
       ------------------------------------------------

     L   x y z        total         open         nuclear
     -   - - -        -----         ----         -------
     0   0 0 0     -0.000000      0.000000     10.000000

     1   1 0 0      0.635505      0.000000     -0.000000
     1   0 1 0      0.000000      0.000000      0.000000
     1   0 0 1      0.507317      0.000000     -0.000000

     2   2 0 0     -3.943948      0.000000      2.908345
     2   1 1 0     -0.000000      0.000000      0.000000
     2   1 0 1     -0.658374      0.000000     -0.992144
     2   0 2 0     -5.452101      0.000000      0.000000
     2   0 1 1      0.000000      0.000000      0.000000

 CCSD total energy / hartree       =       -76.064131047718419
 Total times  cpu:       41.8s     wall:       57.3s
