============================== echo of input deck ==============================
 echo
 start H2O
 title "H2O"

 memory total 24 gb

 geometry units angstrom
 symmetry c1
   zmatrix
     O
     H1 O 0.97551
     H2 O 0.97551 H1 102.25
   end
 end

 basis spherical
   * library cc-pVTZ
 end

 tce
   2eorb
   2emet 13
   ccsd
   maxiter 300
 end

set tce:print_integrals T
set tce:qorb 8
set tce:qela 5
set tce:qelb 5

# set tce:qducc T
# set tce:nactv 3
# set tce:nonhf T
# set tce:ducc_model 6

 set tce:printtol 0.02

 task tce
================================================================================

 Output coordinates in angstroms (scale by  1.889725989 to convert to a.u.)

  No.       Tag          Charge          X              Y              Z
 ---- ---------------- ---------- -------------- -------------- --------------
    1 O                    8.0000    -0.09532987     0.00000000    -0.07685286
    2 H1                   1.0000    -0.09532987     0.00000000     0.89865714
    3 H2                   1.0000     0.85796884     0.00000000    -0.28383430

         Total SCF energy =    -76.055137015146

 Vector    2  Occ=2.000000D+00  E=-1.338098D+00

 Vector    3  Occ=2.000000D+00  E=-6.956748D-01

 Vector    4  Occ=2.000000D+00  E=-5.787255D-01

 Vector    5  Occ=2.000000D+00  E=-5.038086D-01

 Vector    6  Occ=0.000000D+00  E= 1.399013D-01

 Vector    7  Occ=0.000000D+00  E= 2.027630D-01

 Vector    8  Occ=0.000000D+00  E= 5.328825D-01

 Vector    9  Occ=0.000000D+00  E= 5.993182D-01

 Vector   10  Occ=0.000000D+00  E= 6.702598D-01

 Vector   11  Occ=0.000000D+00  E= 7.865553D-01

 Vector   12  Occ=0.000000D+00  E= 7.866055D-01

 Vector   13  Occ=0.000000D+00  E= 8.064705D-01

 Vector   14  Occ=0.000000D+00  E= 8.621368D-01

 Vector   15  Occ=0.000000D+00  E= 9.440164D-01

       Multipole analysis of the density wrt the origin
       ------------------------------------------------

     L   x y z        total         open         nuclear
     -   - - -        -----         ----         -------
     0   0 0 0     -0.000000      0.000000     10.000000

     1   1 0 0      0.635720      0.000000      0.000000
     1   0 1 0      0.000000      0.000000      0.000000
     1   0 0 1      0.512503      0.000000     -0.000000

     2   2 0 0     -3.937691      0.000000      2.920776
     2   1 1 0      0.000000      0.000000      0.000000
     2   1 0 1     -0.644655      0.000000     -0.966255
     2   0 2 0     -5.451667      0.000000      0.000000
     2   0 1 1     -0.000000      0.000000      0.000000

 CCSD total energy / hartree       =       -76.064103817343081
 Total times  cpu:       43.3s     wall:       58.2s
