============================== echo of input deck ==============================
 echo
 start H2O
 title "H2O"

 memory total 24 gb

 geometry units angstrom
 symmetry c1
   zmatrix
     O
     H1 O 0.97551
     H2 O 0.97551 H1 102.75
   end
 end

 basis spherical
   * library cc-pVTZ
 end

 tce
   2eorb
   2emet 13
   ccsd
   maxiter 300
 end

set tce:print_integrals T
set tce:qorb 8
set tce:qela 5
set tce:qelb 5

# set tce:qducc T
# set tce:nactv 3
# set tce:nonhf T
# set tce:ducc_model 6

 set tce:printtol 0.02

 task tce
================================================================================

 Output coordinates in angstroms (scale by  1.889725989 to convert to a.u.)

  No.       Tag          Charge          X              Y              Z
 ---- ---------------- ---------- -------------- -------------- --------------
    1 O                    8.0000    -0.09514562     0.00000000    -0.07602174
    2 H1                   1.0000    -0.09514562     0.00000000     0.89948826
    3 H2                   1.0000     0.85631057     0.00000000    -0.29131430

         Total SCF energy =    -76.055197225615

 Vector    2  Occ=2.000000D+00  E=-1.337724D+00

 Vector    3  Occ=2.000000D+00  E=-6.966203D-01

 Vector    4  Occ=2.000000D+00  E=-5.777347D-01

 Vector    5  Occ=2.000000D+00  E=-5.036390D-01

 Vector    6  Occ=0.000000D+00  E= 1.399973D-01

 Vector    7  Occ=0.000000D+00  E= 2.026679D-01

 Vector    8  Occ=0.000000D+00  E= 5.336933D-01

 Vector    9  Occ=0.000000D+00  E= 5.975967D-01

 Vector   10  Occ=0.000000D+00  E= 6.705787D-01

 Vector   11  Occ=0.000000D+00  E= 7.867160D-01

 Vector   12  Occ=0.000000D+00  E= 7.888924D-01

 Vector   13  Occ=0.000000D+00  E= 8.061673D-01

 Vector   14  Occ=0.000000D+00  E= 8.610533D-01

 Vector   15  Occ=0.000000D+00  E= 9.460731D-01

       Multipole analysis of the density wrt the origin
       ------------------------------------------------

     L   x y z        total         open         nuclear
     -   - - -        -----         ----         -------
     0   0 0 0     -0.000000      0.000000     10.000000

     1   1 0 0      0.635527      0.000000      0.000000
     1   0 1 0      0.000000      0.000000      0.000000
     1   0 0 1      0.507788      0.000000      0.000000

     2   2 0 0     -3.943368      0.000000      2.909496
     2   1 1 0     -0.000000      0.000000      0.000000
     2   1 0 1     -0.657133      0.000000     -0.989802
     2   0 2 0     -5.452061      0.000000      0.000000
     2   0 1 1      0.000000      0.000000      0.000000

 CCSD total energy / hartree       =       -76.064129253101598
 Total times  cpu:       43.9s     wall:       59.7s
