============================== echo of input deck ==============================
 echo
 start H2O
 title "H2O"

 memory total 24 gb

 geometry units angstrom
 symmetry c1
   zmatrix
     O
     H1 O 0.97551
     H2 O 0.97551 H1 102.40
   end
 end

 basis spherical
   * library cc-pVTZ
 end

 tce
   2eorb
   2emet 13
   ccsd
   maxiter 300
 end

set tce:print_integrals T
set tce:qorb 8
set tce:qela 5
set tce:qelb 5

# set tce:qducc T
# set tce:nactv 3
# set tce:nonhf T
# set tce:ducc_model 6

 set tce:printtol 0.02

 task tce
================================================================================

 Output coordinates in angstroms (scale by  1.889725989 to convert to a.u.)

  No.       Tag          Charge          X              Y              Z
 ---- ---------------- ---------- -------------- -------------- --------------
    1 O                    8.0000    -0.09527536     0.00000000    -0.07660335
    2 H1                   1.0000    -0.09527536     0.00000000     0.89890665
    3 H2                   1.0000     0.85747822     0.00000000    -0.28607981

         Total SCF energy =    -76.055156511092

 Vector    2  Occ=2.000000D+00  E=-1.337986D+00

 Vector    3  Occ=2.000000D+00  E=-6.959592D-01

 Vector    4  Occ=2.000000D+00  E=-5.784282D-01

 Vector    5  Occ=2.000000D+00  E=-5.037578D-01

 Vector    6  Occ=0.000000D+00  E= 1.399304D-01

 Vector    7  Occ=0.000000D+00  E= 2.027344D-01

 Vector    8  Occ=0.000000D+00  E= 5.331245D-01

 Vector    9  Occ=0.000000D+00  E= 5.988041D-01

 Vector   10  Occ=0.000000D+00  E= 6.703538D-01

 Vector   11  Occ=0.000000D+00  E= 7.866387D-01

 Vector   12  Occ=0.000000D+00  E= 7.872499D-01

 Vector   13  Occ=0.000000D+00  E= 8.063798D-01

 Vector   14  Occ=0.000000D+00  E= 8.618111D-01

 Vector   15  Occ=0.000000D+00  E= 9.446328D-01

       Multipole analysis of the density wrt the origin
       ------------------------------------------------

     L   x y z        total         open         nuclear
     -   - - -        -----         ----         -------
     0   0 0 0     -0.000000      0.000000     10.000000

     1   1 0 0      0.635666      0.000000      0.000000
     1   0 1 0     -0.000000      0.000000      0.000000
     1   0 0 1      0.511089      0.000000     -0.000000

     2   2 0 0     -3.939371      0.000000      2.917436
     2   1 1 0     -0.000000      0.000000      0.000000
     2   1 0 1     -0.648410      0.000000     -0.973342
     2   0 2 0     -5.451785      0.000000      0.000000
     2   0 1 1     -0.000000      0.000000      0.000000

 CCSD total energy / hartree       =       -76.064112880758017
 Total times  cpu:       44.4s     wall:       60.1s
