============================== echo of input deck ==============================
 echo
 start H2O
 title "H2O"

 memory total 24 gb

 geometry units angstrom
 symmetry c1
   zmatrix
     O
     H1 O 0.97551
     H2 O 0.97551 H1 103.00
   end
 end

 basis spherical
   * library cc-pVTZ
 end

 tce
   2eorb
   2emet 13
   ccsd
   maxiter 300
 end

set tce:print_integrals T
set tce:qorb 8
set tce:qela 5
set tce:qelb 5

# set tce:qducc T
# set tce:nactv 3
# set tce:nonhf T
# set tce:ducc_model 6

 set tce:printtol 0.02

 task tce
================================================================================

 Output coordinates in angstroms (scale by  1.889725989 to convert to a.u.)

  No.       Tag          Charge          X              Y              Z
 ---- ---------------- ---------- -------------- -------------- --------------
    1 O                    8.0000    -0.09505077     0.00000000    -0.07560680
    2 H1                   1.0000    -0.09505077     0.00000000     0.89990320
    3 H2                   1.0000     0.85545697     0.00000000    -0.29504880

         Total SCF energy =    -76.055222228394

 Vector    2  Occ=2.000000D+00  E=-1.337538D+00

 Vector    3  Occ=2.000000D+00  E=-6.970906D-01

 Vector    4  Occ=2.000000D+00  E=-5.772398D-01

 Vector    5  Occ=2.000000D+00  E=-5.035538D-01

 Vector    6  Occ=0.000000D+00  E= 1.400440D-01

 Vector    7  Occ=0.000000D+00  E= 2.026204D-01

 Vector    8  Occ=0.000000D+00  E= 5.341033D-01

 Vector    9  Occ=0.000000D+00  E= 5.967278D-01

 Vector   10  Occ=0.000000D+00  E= 6.707440D-01

 Vector   11  Occ=0.000000D+00  E= 7.867712D-01

 Vector   12  Occ=0.000000D+00  E= 7.900840D-01

 Vector   13  Occ=0.000000D+00  E= 8.060149D-01

 Vector   14  Occ=0.000000D+00  E= 8.605138D-01

 Vector   15  Occ=0.000000D+00  E= 9.471035D-01

       Multipole analysis of the density wrt the origin
       ------------------------------------------------

     L   x y z        total         open         nuclear
     -   - - -        -----         ----         -------
     0   0 0 0     -0.000000      0.000000     10.000000

     1   1 0 0      0.635414      0.000000      0.000000
     1   0 1 0     -0.000000      0.000000      0.000000
     1   0 0 1      0.505431      0.000000      0.000000

     2   2 0 0     -3.946291      0.000000      2.903698
     2   1 1 0     -0.000000      0.000000      0.000000
     2   1 0 1     -0.663328      0.000000     -1.001491
     2   0 2 0     -5.452260      0.000000      0.000000
     2   0 1 1      0.000000      0.000000      0.000000

 CCSD total energy / hartree       =       -76.064136869771318
 Total times  cpu:       45.5s     wall:       62.6s
