============================== echo of input deck ==============================
 echo
 start H2O
 title "H2O"

 memory total 24 gb

 geometry units angstrom
 symmetry c1
   zmatrix
     O
     H1 O 0.97551
     H2 O 0.97551 H1 103.60
   end
 end

 basis spherical
   * library cc-pVTZ
 end

 tce
   2eorb
   2emet 13
   ccsd
   maxiter 300
 end

set tce:print_integrals T
set tce:qorb 8
set tce:qela 5
set tce:qelb 5

# set tce:qducc T
# set tce:nactv 3
# set tce:nonhf T
# set tce:ducc_model 6

 set tce:printtol 0.02

 task tce
================================================================================

 Output coordinates in angstroms (scale by  1.889725989 to convert to a.u.)

  No.       Tag          Charge          X              Y              Z
 ---- ---------------- ---------- -------------- -------------- --------------
    1 O                    8.0000    -0.09481577     0.00000000    -0.07461265
    2 H1                   1.0000    -0.09481577     0.00000000     0.90089735
    3 H2                   1.0000     0.85334191     0.00000000    -0.30399613

         Total SCF energy =    -76.055268446497

 Vector    2  Occ=2.000000D+00  E=-1.337092D+00

 Vector    3  Occ=2.000000D+00  E=-6.982125D-01

 Vector    4  Occ=2.000000D+00  E=-5.760533D-01

 Vector    5  Occ=2.000000D+00  E=-5.033486D-01

 Vector    6  Occ=0.000000D+00  E= 1.401527D-01

 Vector    7  Occ=0.000000D+00  E= 2.025065D-01

 Vector    8  Occ=0.000000D+00  E= 5.351000D-01

 Vector    9  Occ=0.000000D+00  E= 5.946221D-01

 Vector   10  Occ=0.000000D+00  E= 6.711572D-01

 Vector   11  Occ=0.000000D+00  E= 7.869033D-01

 Vector   12  Occ=0.000000D+00  E= 7.930052D-01

 Vector   13  Occ=0.000000D+00  E= 8.056468D-01

 Vector   14  Occ=0.000000D+00  E= 8.592252D-01

 Vector   15  Occ=0.000000D+00  E= 9.495817D-01

       Multipole analysis of the density wrt the origin
       ------------------------------------------------

     L   x y z        total         open         nuclear
     -   - - -        -----         ----         -------
     0   0 0 0     -0.000000      0.000000     10.000000

     1   1 0 0      0.635103      0.000000      0.000000
     1   0 1 0      0.000000      0.000000      0.000000
     1   0 0 1      0.499777      0.000000      0.000000

     2   2 0 0     -3.953530      0.000000      2.889358
     2   1 1 0     -0.000000      0.000000      0.000000
     2   1 0 1     -0.678076      0.000000     -1.029310
     2   0 2 0     -5.452745      0.000000      0.000000
     2   0 1 1     -0.000000      0.000000      0.000000

 CCSD total energy / hartree       =       -76.064141369539158
 Total times  cpu:       51.5s     wall:       71.0s
