============================== echo of input deck ==============================
 echo
 start H2O
 title "H2O"

 memory total 24 gb

 geometry units angstrom
 symmetry c1
   zmatrix
     O
     H1 O 0.97551
     H2 O 0.97551 H1 103.55
   end
 end

 basis spherical
   * library cc-pVTZ
 end

 tce
   2eorb
   2emet 13
   ccsd
   maxiter 300
 end

set tce:print_integrals T
set tce:qorb 8
set tce:qela 5
set tce:qelb 5

# set tce:qducc T
# set tce:nactv 3
# set tce:nonhf T
# set tce:ducc_model 6

 set tce:printtol 0.02

 task tce
================================================================================

 Output coordinates in angstroms (scale by  1.889725989 to convert to a.u.)

  No.       Tag          Charge          X              Y              Z
 ---- ---------------- ---------- -------------- -------------- --------------
    1 O                    8.0000    -0.09483575     0.00000000    -0.07469540
    2 H1                   1.0000    -0.09483575     0.00000000     0.90081460
    3 H2                   1.0000     0.85352174     0.00000000    -0.30325137

         Total SCF energy =    -76.055265335570

 Vector    2  Occ=2.000000D+00  E=-1.337129D+00

 Vector    3  Occ=2.000000D+00  E=-6.981193D-01

 Vector    4  Occ=2.000000D+00  E=-5.761521D-01

 Vector    5  Occ=2.000000D+00  E=-5.033658D-01

 Vector    6  Occ=0.000000D+00  E= 1.401438D-01

 Vector    7  Occ=0.000000D+00  E= 2.025160D-01

 Vector    8  Occ=0.000000D+00  E= 5.350163D-01

 Vector    9  Occ=0.000000D+00  E= 5.947986D-01

 Vector   10  Occ=0.000000D+00  E= 6.711219D-01

 Vector   11  Occ=0.000000D+00  E= 7.868923D-01

 Vector   12  Occ=0.000000D+00  E= 7.927585D-01

 Vector   13  Occ=0.000000D+00  E= 8.056776D-01

 Vector   14  Occ=0.000000D+00  E= 8.593323D-01

 Vector   15  Occ=0.000000D+00  E= 9.493749D-01

       Multipole analysis of the density wrt the origin
       ------------------------------------------------

     L   x y z        total         open         nuclear
     -   - - -        -----         ----         -------
     0   0 0 0     -0.000000      0.000000     10.000000

     1   1 0 0      0.635131      0.000000     -0.000000
     1   0 1 0     -0.000000      0.000000      0.000000
     1   0 0 1      0.500248      0.000000      0.000000

     2   2 0 0     -3.952915      0.000000      2.890576
     2   1 1 0      0.000000      0.000000      0.000000
     2   1 0 1     -0.676854      0.000000     -1.027005
     2   0 2 0     -5.452704      0.000000      0.000000
     2   0 1 1     -0.000000      0.000000      0.000000

 CCSD total energy / hartree       =       -76.064141734536932
 Total times  cpu:       55.4s     wall:       74.5s
