============================== echo of input deck ==============================
 echo
 start H2O
 title "H2O"

 memory total 24 gb

 geometry units angstrom
 symmetry c1
   zmatrix
     O
     H1 O 0.97551
     H2 O 0.97551 H1 103.85
   end
 end

 basis spherical
   * library cc-pVTZ
 end

 tce
   2eorb
   2emet 13
   ccsd
   maxiter 300
 end

set tce:print_integrals T
set tce:qorb 8
set tce:qela 5
set tce:qelb 5

# set tce:qducc T
# set tce:nactv 3
# set tce:nonhf T
# set tce:ducc_model 6

 set tce:printtol 0.02

 task tce
================================================================================

 Output coordinates in angstroms (scale by  1.889725989 to convert to a.u.)

  No.       Tag          Charge          X              Y              Z
 ---- ---------------- ---------- -------------- -------------- --------------
    1 O                    8.0000    -0.09471478     0.00000000    -0.07419916
    2 H1                   1.0000    -0.09471478     0.00000000     0.90131084
    3 H2                   1.0000     0.85243300     0.00000000    -0.30771756

         Total SCF energy =    -76.055281989802

 Vector    2  Occ=2.000000D+00  E=-1.336907D+00

 Vector    3  Occ=2.000000D+00  E=-6.986771D-01

 Vector    4  Occ=2.000000D+00  E=-5.755595D-01

 Vector    5  Occ=2.000000D+00  E=-5.032628D-01

 Vector    6  Occ=0.000000D+00  E= 1.401965D-01

 Vector    7  Occ=0.000000D+00  E= 2.024591D-01

 Vector    8  Occ=0.000000D+00  E= 5.355205D-01

 Vector    9  Occ=0.000000D+00  E= 5.937370D-01

 Vector   10  Occ=0.000000D+00  E= 6.713364D-01

 Vector   11  Occ=0.000000D+00  E= 7.869583D-01

 Vector   12  Occ=0.000000D+00  E= 7.942474D-01

 Vector   13  Occ=0.000000D+00  E= 8.054924D-01

 Vector   14  Occ=0.000000D+00  E= 8.586909D-01

 Vector   15  Occ=0.000000D+00  E= 9.506164D-01

       Multipole analysis of the density wrt the origin
       ------------------------------------------------

     L   x y z        total         open         nuclear
     -   - - -        -----         ----         -------
     0   0 0 0     -0.000000      0.000000     10.000000

     1   1 0 0      0.634956      0.000000     -0.000000
     1   0 1 0     -0.000000      0.000000      0.000000
     1   0 0 1      0.497421      0.000000      0.000000

     2   2 0 0     -3.956641      0.000000      2.883206
     2   1 1 0      0.000000      0.000000      0.000000
     2   1 0 1     -0.684170      0.000000     -1.040801
     2   0 2 0     -5.452950      0.000000      0.000000
     2   0 1 1      0.000000      0.000000      0.000000

 CCSD total energy / hartree       =       -76.064137535299380
 Total times  cpu:       53.0s     wall:       71.8s
