============================== echo of input deck ==============================
 echo
 start H2O
 title "H2O"

 memory total 24 gb

 geometry units angstrom
 symmetry c1
   zmatrix
     O
     H1 O 0.97551
     H2 O 0.97551 H1 103.45
   end
 end

 basis spherical
   * library cc-pVTZ
 end

 tce
   2eorb
   2emet 13
   ccsd
   maxiter 300
 end

set tce:print_integrals T
set tce:qorb 8
set tce:qela 5
set tce:qelb 5

# set tce:qducc T
# set tce:nactv 3
# set tce:nonhf T
# set tce:ducc_model 6

 set tce:printtol 0.02

 task tce
================================================================================

 Output coordinates in angstroms (scale by  1.889725989 to convert to a.u.)

  No.       Tag          Charge          X              Y              Z
 ---- ---------------- ---------- -------------- -------------- --------------
    1 O                    8.0000    -0.09487550     0.00000000    -0.07486096
    2 H1                   1.0000    -0.09487550     0.00000000     0.90064904
    3 H2                   1.0000     0.85387946     0.00000000    -0.30176139

         Total SCF energy =    -76.055258710651

 Vector    2  Occ=2.000000D+00  E=-1.337203D+00

 Vector    3  Occ=2.000000D+00  E=-6.979329D-01

 Vector    4  Occ=2.000000D+00  E=-5.763497D-01

 Vector    5  Occ=2.000000D+00  E=-5.034000D-01

 Vector    6  Occ=0.000000D+00  E= 1.401259D-01

 Vector    7  Occ=0.000000D+00  E= 2.025350D-01

 Vector    8  Occ=0.000000D+00  E= 5.348492D-01

 Vector    9  Occ=0.000000D+00  E= 5.951511D-01

 Vector   10  Occ=0.000000D+00  E= 6.710517D-01

 Vector   11  Occ=0.000000D+00  E= 7.868703D-01

 Vector   12  Occ=0.000000D+00  E= 7.922669D-01

 Vector   13  Occ=0.000000D+00  E= 8.057392D-01

 Vector   14  Occ=0.000000D+00  E= 8.595465D-01

 Vector   15  Occ=0.000000D+00  E= 9.489615D-01

       Multipole analysis of the density wrt the origin
       ------------------------------------------------

     L   x y z        total         open         nuclear
     -   - - -        -----         ----         -------
     0   0 0 0     -0.000000      0.000000     10.000000

     1   1 0 0      0.635186      0.000000      0.000000
     1   0 1 0      0.000000      0.000000      0.000000
     1   0 0 1      0.501190      0.000000     -0.000000

     2   2 0 0     -3.951691      0.000000      2.892999
     2   1 1 0      0.000000      0.000000      0.000000
     2   1 0 1     -0.674405      0.000000     -1.022387
     2   0 2 0     -5.452623      0.000000      0.000000
     2   0 1 1      0.000000      0.000000      0.000000

 CCSD total energy / hartree       =       -76.064142061842588
 Total times  cpu:       52.0s     wall:       70.2s
