============================== echo of input deck ==============================
 echo
 start H2O
 title "H2O"

 memory total 24 gb

 geometry units angstrom
 symmetry c1
   zmatrix
     O
     H1 O 0.97551
     H2 O 0.97551 H1 103.35
   end
 end

 basis spherical
   * library cc-pVTZ
 end

 tce
   2eorb
   2emet 13
   ccsd
   maxiter 300
 end

set tce:print_integrals T
set tce:qorb 8
set tce:qela 5
set tce:qelb 5

# set tce:qducc T
# set tce:nactv 3
# set tce:nonhf T
# set tce:ducc_model 6

 set tce:printtol 0.02

 task tce
================================================================================

 Output coordinates in angstroms (scale by  1.889725989 to convert to a.u.)

  No.       Tag          Charge          X              Y              Z
 ---- ---------------- ---------- -------------- -------------- --------------
    1 O                    8.0000    -0.09491495     0.00000000    -0.07502658
    2 H1                   1.0000    -0.09491495     0.00000000     0.90048342
    3 H2                   1.0000     0.85423457     0.00000000    -0.30027077

         Total SCF energy =    -76.055251547689

 Vector    2  Occ=2.000000D+00  E=-1.337277D+00

 Vector    3  Occ=2.000000D+00  E=-6.977462D-01

 Vector    4  Occ=2.000000D+00  E=-5.765474D-01

 Vector    5  Occ=2.000000D+00  E=-5.034343D-01

 Vector    6  Occ=0.000000D+00  E= 1.401080D-01

 Vector    7  Occ=0.000000D+00  E= 2.025540D-01

 Vector    8  Occ=0.000000D+00  E= 5.346826D-01

 Vector    9  Occ=0.000000D+00  E= 5.955028D-01

 Vector   10  Occ=0.000000D+00  E= 6.709822D-01

 Vector   11  Occ=0.000000D+00  E= 7.868483D-01

 Vector   12  Occ=0.000000D+00  E= 7.917776D-01

 Vector   13  Occ=0.000000D+00  E= 8.058006D-01

 Vector   14  Occ=0.000000D+00  E= 8.597611D-01

 Vector   15  Occ=0.000000D+00  E= 9.485483D-01

       Multipole analysis of the density wrt the origin
       ------------------------------------------------

     L   x y z        total         open         nuclear
     -   - - -        -----         ----         -------
     0   0 0 0     -0.000000      0.000000     10.000000

     1   1 0 0      0.635240      0.000000      0.000000
     1   0 1 0      0.000000      0.000000      0.000000
     1   0 0 1      0.502133      0.000000      0.000000

     2   2 0 0     -3.950475      0.000000      2.895406
     2   1 1 0      0.000000      0.000000      0.000000
     2   1 0 1     -0.671952      0.000000     -1.017760
     2   0 2 0     -5.452542      0.000000      0.000000
     2   0 1 1      0.000000      0.000000      0.000000

 CCSD total energy / hartree       =       -76.064141851573027
 Total times  cpu:       60.7s     wall:       83.0s
