============================== echo of input deck ==============================
 echo
 start H2O
 title "H2O"

 memory total 24 gb

 geometry units angstrom
 symmetry c1
   zmatrix
     O
     H1 O 0.97551
     H2 O 0.97551 H1 103.40
   end
 end

 basis spherical
   * library cc-pVTZ
 end

 tce
   2eorb
   2emet 13
   ccsd
   maxiter 300
 end

set tce:print_integrals T
set tce:qorb 8
set tce:qela 5
set tce:qelb 5

# set tce:qducc T
# set tce:nactv 3
# set tce:nonhf T
# set tce:ducc_model 6

 set tce:printtol 0.02

 task tce
================================================================================

 Output coordinates in angstroms (scale by  1.889725989 to convert to a.u.)

  No.       Tag          Charge          X              Y              Z
 ---- ---------------- ---------- -------------- -------------- --------------
    1 O                    8.0000    -0.09489526     0.00000000    -0.07494376
    2 H1                   1.0000    -0.09489526     0.00000000     0.90056624
    3 H2                   1.0000     0.85405734     0.00000000    -0.30101616

         Total SCF energy =    -76.055255196512

 Vector    2  Occ=2.000000D+00  E=-1.337240D+00

 Vector    3  Occ=2.000000D+00  E=-6.978396D-01

 Vector    4  Occ=2.000000D+00  E=-5.764486D-01

 Vector    5  Occ=2.000000D+00  E=-5.034172D-01

 Vector    6  Occ=0.000000D+00  E= 1.401170D-01

 Vector    7  Occ=0.000000D+00  E= 2.025445D-01

 Vector    8  Occ=0.000000D+00  E= 5.347658D-01

 Vector    9  Occ=0.000000D+00  E= 5.953270D-01

 Vector   10  Occ=0.000000D+00  E= 6.710168D-01

 Vector   11  Occ=0.000000D+00  E= 7.868593D-01

 Vector   12  Occ=0.000000D+00  E= 7.920220D-01

 Vector   13  Occ=0.000000D+00  E= 8.057699D-01

 Vector   14  Occ=0.000000D+00  E= 8.596538D-01

 Vector   15  Occ=0.000000D+00  E= 9.487548D-01

       Multipole analysis of the density wrt the origin
       ------------------------------------------------

     L   x y z        total         open         nuclear
     -   - - -        -----         ----         -------
     0   0 0 0     -0.000000      0.000000     10.000000

     1   1 0 0      0.635213      0.000000      0.000000
     1   0 1 0     -0.000000      0.000000      0.000000
     1   0 0 1      0.501661      0.000000      0.000000

     2   2 0 0     -3.951082      0.000000      2.894205
     2   1 1 0     -0.000000      0.000000      0.000000
     2   1 0 1     -0.673179      0.000000     -1.020075
     2   0 2 0     -5.452582      0.000000      0.000000
     2   0 1 1     -0.000000      0.000000      0.000000

 CCSD total energy / hartree       =       -76.064142023993185
 Total times  cpu:       58.0s     wall:       79.5s
