============================== echo of input deck ==============================
 echo
 start H2O
 title "H2O"

 memory total 24 gb

 geometry units angstrom
 symmetry c1
   zmatrix
     O
     H1 O 0.97551
     H2 O 0.97551 H1 103.30
   end
 end

 basis spherical
   * library cc-pVTZ
 end

 tce
   2eorb
   2emet 13
   ccsd
   maxiter 300
 end

set tce:print_integrals T
set tce:qorb 8
set tce:qela 5
set tce:qelb 5

# set tce:qducc T
# set tce:nactv 3
# set tce:nonhf T
# set tce:ducc_model 6

 set tce:printtol 0.02

 task tce
================================================================================

 Output coordinates in angstroms (scale by  1.889725989 to convert to a.u.)

  No.       Tag          Charge          X              Y              Z
 ---- ---------------- ---------- -------------- -------------- --------------
    1 O                    8.0000    -0.09493457     0.00000000    -0.07510942
    2 H1                   1.0000    -0.09493457     0.00000000     0.90040058
    3 H2                   1.0000     0.85441115     0.00000000    -0.29952524

         Total SCF energy =    -76.055247764150

 Vector    2  Occ=2.000000D+00  E=-1.337314D+00

 Vector    3  Occ=2.000000D+00  E=-6.976527D-01

 Vector    4  Occ=2.000000D+00  E=-5.766463D-01

 Vector    5  Occ=2.000000D+00  E=-5.034514D-01

 Vector    6  Occ=0.000000D+00  E= 1.400989D-01

 Vector    7  Occ=0.000000D+00  E= 2.025635D-01

 Vector    8  Occ=0.000000D+00  E= 5.345994D-01

 Vector    9  Occ=0.000000D+00  E= 5.956784D-01

 Vector   10  Occ=0.000000D+00  E= 6.709476D-01

 Vector   11  Occ=0.000000D+00  E= 7.868373D-01

 Vector   12  Occ=0.000000D+00  E= 7.915339D-01

 Vector   13  Occ=0.000000D+00  E= 8.058313D-01

 Vector   14  Occ=0.000000D+00  E= 8.598684D-01

 Vector   15  Occ=0.000000D+00  E= 9.483417D-01

       Multipole analysis of the density wrt the origin
       ------------------------------------------------

     L   x y z        total         open         nuclear
     -   - - -        -----         ----         -------
     0   0 0 0     -0.000000      0.000000     10.000000

     1   1 0 0      0.635266      0.000000      0.000000
     1   0 1 0     -0.000000      0.000000      0.000000
     1   0 0 1      0.502604      0.000000      0.000000

     2   2 0 0     -3.949871      0.000000      2.896603
     2   1 1 0     -0.000000      0.000000      0.000000
     2   1 0 1     -0.670724      0.000000     -1.015443
     2   0 2 0     -5.452501      0.000000      0.000000
     2   0 1 1      0.000000      0.000000      0.000000

 CCSD total energy / hartree       =       -76.064141544541528
 Total times  cpu:       47.8s     wall:       64.1s
