============================== echo of input deck ==============================
 echo
 start H2O
 title "H2O"

 memory total 24 gb

 geometry units angstrom
 symmetry c1
   zmatrix
     O
     H1 O 0.97551
     H2 O 0.97551 H1 103.65
   end
 end

 basis spherical
   * library cc-pVTZ
 end

 tce
   2eorb
   2emet 13
   ccsd
   maxiter 300
 end

set tce:print_integrals T
set tce:qorb 8
set tce:qela 5
set tce:qelb 5

# set tce:qducc T
# set tce:nactv 3
# set tce:nonhf T
# set tce:ducc_model 6

 set tce:printtol 0.02

 task tce
================================================================================

 Output coordinates in angstroms (scale by  1.889725989 to convert to a.u.)

  No.       Tag          Charge          X              Y              Z
 ---- ---------------- ---------- -------------- -------------- --------------
    1 O                    8.0000    -0.09479571     0.00000000    -0.07452992
    2 H1                   1.0000    -0.09479571     0.00000000     0.90098008
    3 H2                   1.0000     0.85316143     0.00000000    -0.30474074

         Total SCF energy =    -76.055271423177

 Vector    2  Occ=2.000000D+00  E=-1.337055D+00

 Vector    3  Occ=2.000000D+00  E=-6.983055D-01

 Vector    4  Occ=2.000000D+00  E=-5.759545D-01

 Vector    5  Occ=2.000000D+00  E=-5.033315D-01

 Vector    6  Occ=0.000000D+00  E= 1.401615D-01

 Vector    7  Occ=0.000000D+00  E= 2.024970D-01

 Vector    8  Occ=0.000000D+00  E= 5.351839D-01

 Vector    9  Occ=0.000000D+00  E= 5.944454D-01

 Vector   10  Occ=0.000000D+00  E= 6.711927D-01

 Vector   11  Occ=0.000000D+00  E= 7.869143D-01

 Vector   12  Occ=0.000000D+00  E= 7.932525D-01

 Vector   13  Occ=0.000000D+00  E= 8.056160D-01

 Vector   14  Occ=0.000000D+00  E= 8.591182D-01

 Vector   15  Occ=0.000000D+00  E= 9.497885D-01

       Multipole analysis of the density wrt the origin
       ------------------------------------------------

     L   x y z        total         open         nuclear
     -   - - -        -----         ----         -------
     0   0 0 0     -0.000000      0.000000     10.000000

     1   1 0 0      0.635074      0.000000      0.000000
     1   0 1 0      0.000000      0.000000      0.000000
     1   0 0 1      0.499306      0.000000      0.000000

     2   2 0 0     -3.954148      0.000000      2.888136
     2   1 1 0     -0.000000      0.000000      0.000000
     2   1 0 1     -0.679298      0.000000     -1.031613
     2   0 2 0     -5.452786      0.000000      0.000000
     2   0 1 1     -0.000000      0.000000      0.000000

 CCSD total energy / hartree       =       -76.064140870425391
 Total times  cpu:       51.1s     wall:       69.8s
