============================== echo of input deck ==============================
 echo
 start H2O
 title "H2O"

 memory total 24 gb

 geometry units angstrom
 symmetry c1
   zmatrix
     O
     H1 O 0.97551
     H2 O 0.97551 H1 103.75
   end
 end

 basis spherical
   * library cc-pVTZ
 end

 tce
   2eorb
   2emet 13
   ccsd
   maxiter 300
 end

set tce:print_integrals T
set tce:qorb 8
set tce:qela 5
set tce:qelb 5

# set tce:qducc T
# set tce:nactv 3
# set tce:nonhf T
# set tce:ducc_model 6

 set tce:printtol 0.02

 task tce
================================================================================

 Output coordinates in angstroms (scale by  1.889725989 to convert to a.u.)

  No.       Tag          Charge          X              Y              Z
 ---- ---------------- ---------- -------------- -------------- --------------
    1 O                    8.0000    -0.09475539     0.00000000    -0.07436450
    2 H1                   1.0000    -0.09475539     0.00000000     0.90114550
    3 H2                   1.0000     0.85279851     0.00000000    -0.30622947

         Total SCF energy =    -76.055276974352

 Vector    2  Occ=2.000000D+00  E=-1.336981D+00

 Vector    3  Occ=2.000000D+00  E=-6.984914D-01

 Vector    4  Occ=2.000000D+00  E=-5.757569D-01

 Vector    5  Occ=2.000000D+00  E=-5.032971D-01

 Vector    6  Occ=0.000000D+00  E= 1.401791D-01

 Vector    7  Occ=0.000000D+00  E= 2.024781D-01

 Vector    8  Occ=0.000000D+00  E= 5.353519D-01

 Vector    9  Occ=0.000000D+00  E= 5.940915D-01

 Vector   10  Occ=0.000000D+00  E= 6.712642D-01

 Vector   11  Occ=0.000000D+00  E= 7.869363D-01

 Vector   12  Occ=0.000000D+00  E= 7.937488D-01

 Vector   13  Occ=0.000000D+00  E= 8.055543D-01

 Vector   14  Occ=0.000000D+00  E= 8.589044D-01

 Vector   15  Occ=0.000000D+00  E= 9.502024D-01

       Multipole analysis of the density wrt the origin
       ------------------------------------------------

     L   x y z        total         open         nuclear
     -   - - -        -----         ----         -------
     0   0 0 0     -0.000000      0.000000     10.000000

     1   1 0 0      0.635016      0.000000      0.000000
     1   0 1 0      0.000000      0.000000      0.000000
     1   0 0 1      0.498364      0.000000      0.000000

     2   2 0 0     -3.955390      0.000000      2.885679
     2   1 1 0     -0.000000      0.000000      0.000000
     2   1 0 1     -0.681736      0.000000     -1.036212
     2   0 2 0     -5.452868      0.000000      0.000000
     2   0 1 1     -0.000000      0.000000      0.000000

 CCSD total energy / hartree       =       -76.064139470430774
 Total times  cpu:       54.6s     wall:       74.6s
