============================== echo of input deck ==============================
 echo
 start H2O
 title "H2O"

 memory total 24 gb

 geometry units angstrom
 symmetry c1
   zmatrix
     O
     H1 O 0.97551
     H2 O 0.97551 H1 104.00
   end
 end

 basis spherical
   * library cc-pVTZ
 end

 tce
   2eorb
   2emet 13
   ccsd
   maxiter 300
 end

set tce:print_integrals T
set tce:qorb 8
set tce:qela 5
set tce:qelb 5

# set tce:qducc T
# set tce:nactv 3
# set tce:nonhf T
# set tce:ducc_model 6

 set tce:printtol 0.02

 task tce
================================================================================

 Output coordinates in angstroms (scale by  1.889725989 to convert to a.u.)

  No.       Tag          Charge          X              Y              Z
 ---- ---------------- ---------- -------------- -------------- --------------
    1 O                    8.0000    -0.09465332     0.00000000    -0.07395128
    2 H1                   1.0000    -0.09465332     0.00000000     0.90155872
    3 H2                   1.0000     0.85187987     0.00000000    -0.30994851

         Total SCF energy =    -76.055288510350

 Vector    2  Occ=2.000000D+00  E=-1.336796D+00

 Vector    3  Occ=2.000000D+00  E=-6.989551D-01

 Vector    4  Occ=2.000000D+00  E=-5.752633D-01

 Vector    5  Occ=2.000000D+00  E=-5.032111D-01

 Vector    6  Occ=0.000000D+00  E= 1.402224D-01

 Vector    7  Occ=0.000000D+00  E= 2.024306D-01

 Vector    8  Occ=0.000000D+00  E= 5.357743D-01

 Vector    9  Occ=0.000000D+00  E= 5.932039D-01

 Vector   10  Occ=0.000000D+00  E= 6.714460D-01

 Vector   11  Occ=0.000000D+00  E= 7.869912D-01

 Vector   12  Occ=0.000000D+00  E= 7.949996D-01

 Vector   13  Occ=0.000000D+00  E= 8.053995D-01

 Vector   14  Occ=0.000000D+00  E= 8.583710D-01

 Vector   15  Occ=0.000000D+00  E= 9.512377D-01

       Multipole analysis of the density wrt the origin
       ------------------------------------------------

     L   x y z        total         open         nuclear
     -   - - -        -----         ----         -------
     0   0 0 0     -0.000000      0.000000     10.000000

     1   1 0 0      0.634862      0.000000      0.000000
     1   0 1 0     -0.000000      0.000000      0.000000
     1   0 0 1      0.496009      0.000000      0.000000

     2   2 0 0     -3.958533      0.000000      2.879465
     2   1 1 0     -0.000000      0.000000      0.000000
     2   1 0 1     -0.687812      0.000000     -1.047667
     2   0 2 0     -5.453074      0.000000      0.000000
     2   0 1 1      0.000000      0.000000      0.000000

 CCSD total energy / hartree       =       -76.064133631168644
 Total times  cpu:       51.8s     wall:       71.5s
