============================== echo of input deck ==============================
 echo
 start H2O
 title "H2O"

 memory total 24 gb

 geometry units angstrom
 symmetry c1
   zmatrix
     O
     H1 O 0.97551
     H2 O 0.97551 H1 104.85
   end
 end

 basis spherical
   * library cc-pVTZ
 end

 tce
   2eorb
   2emet 13
   ccsd
   maxiter 300
 end

set tce:print_integrals T
set tce:qorb 8
set tce:qela 5
set tce:qelb 5

# set tce:qducc T
# set tce:nactv 3
# set tce:nonhf T
# set tce:ducc_model 6

 set tce:printtol 0.02

 task tce
================================================================================

 Output coordinates in angstroms (scale by  1.889725989 to convert to a.u.)

  No.       Tag          Charge          X              Y              Z
 ---- ---------------- ---------- -------------- -------------- --------------
    1 O                    8.0000    -0.09429281     0.00000000    -0.07254972
    2 H1                   1.0000    -0.09429281     0.00000000     0.90296028
    3 H2                   1.0000     0.84863526     0.00000000    -0.32256256

         Total SCF energy =    -76.055302861068

 Vector    2  Occ=2.000000D+00  E=-1.336170D+00

 Vector    3  Occ=2.000000D+00  E=-7.005189D-01

 Vector    4  Occ=2.000000D+00  E=-5.735874D-01

 Vector    5  Occ=2.000000D+00  E=-5.029171D-01

 Vector    6  Occ=0.000000D+00  E= 1.403634D-01

 Vector    7  Occ=0.000000D+00  E= 2.022696D-01

 Vector    8  Occ=0.000000D+00  E= 5.372329D-01

 Vector    9  Occ=0.000000D+00  E= 5.901568D-01

 Vector   10  Occ=0.000000D+00  E= 6.720961D-01

 Vector   11  Occ=0.000000D+00  E= 7.871775D-01

 Vector   12  Occ=0.000000D+00  E= 7.993585D-01

 Vector   13  Occ=0.000000D+00  E= 8.048680D-01

 Vector   14  Occ=0.000000D+00  E= 8.565687D-01

 Vector   15  Occ=0.000000D+00  E= 9.547656D-01

       Multipole analysis of the density wrt the origin
       ------------------------------------------------

     L   x y z        total         open         nuclear
     -   - - -        -----         ----         -------
     0   0 0 0     -0.000000      0.000000     10.000000

     1   1 0 0      0.634261      0.000000      0.000000
     1   0 1 0      0.000000      0.000000      0.000000
     1   0 0 1      0.488006      0.000000      0.000000

     2   2 0 0     -3.969627      0.000000      2.857573
     2   1 1 0     -0.000000      0.000000      0.000000
     2   1 0 1     -0.708231      0.000000     -1.086151
     2   0 2 0     -5.453785      0.000000      0.000000
     2   0 1 1     -0.000000      0.000000      0.000000

 CCSD total energy / hartree       =       -76.064088941904117
 Total times  cpu:       65.3s     wall:       89.0s
