============================== echo of input deck ==============================
 echo
 start H2O
 title "H2O"

 memory total 24 gb

 geometry units angstrom
 symmetry c1
   zmatrix
     O
     H1 O 0.97551
     H2 O 0.97551 H1 104.15
   end
 end

 basis spherical
   * library cc-pVTZ
 end

 tce
   2eorb
   2emet 13
   ccsd
   maxiter 300
 end

set tce:print_integrals T
set tce:qorb 8
set tce:qela 5
set tce:qelb 5

# set tce:qducc T
# set tce:nactv 3
# set tce:nonhf T
# set tce:ducc_model 6

 set tce:printtol 0.02

 task tce
================================================================================

 Output coordinates in angstroms (scale by  1.889725989 to convert to a.u.)

  No.       Tag          Charge          X              Y              Z
 ---- ---------------- ---------- -------------- -------------- --------------
    1 O                    8.0000    -0.09459121     0.00000000    -0.07370356
    2 H1                   1.0000    -0.09459121     0.00000000     0.90180644
    3 H2                   1.0000     0.85132089     0.00000000    -0.31217799

         Total SCF energy =    -76.055293830264

 Vector    2  Occ=2.000000D+00  E=-1.336685D+00

 Vector    3  Occ=2.000000D+00  E=-6.992325D-01

 Vector    4  Occ=2.000000D+00  E=-5.749673D-01

 Vector    5  Occ=2.000000D+00  E=-5.031594D-01

 Vector    6  Occ=0.000000D+00  E= 1.402480D-01

 Vector    7  Occ=0.000000D+00  E= 2.024022D-01

 Vector    8  Occ=0.000000D+00  E= 5.360292D-01

 Vector    9  Occ=0.000000D+00  E= 5.926693D-01

 Vector   10  Occ=0.000000D+00  E= 6.715570D-01

 Vector   11  Occ=0.000000D+00  E= 7.870241D-01

 Vector   12  Occ=0.000000D+00  E= 7.957570D-01

 Vector   13  Occ=0.000000D+00  E= 8.053063D-01

 Vector   14  Occ=0.000000D+00  E= 8.580516D-01

 Vector   15  Occ=0.000000D+00  E= 9.518594D-01

       Multipole analysis of the density wrt the origin
       ------------------------------------------------

     L   x y z        total         open         nuclear
     -   - - -        -----         ----         -------
     0   0 0 0     -0.000000      0.000000     10.000000

     1   1 0 0      0.634765      0.000000      0.000000
     1   0 1 0     -0.000000      0.000000      0.000000
     1   0 0 1      0.494596      0.000000      0.000000

     2   2 0 0     -3.960445      0.000000      2.875688
     2   1 1 0      0.000000      0.000000      0.000000
     2   1 0 1     -0.691442      0.000000     -1.054510
     2   0 2 0     -5.453198      0.000000      0.000000
     2   0 1 1      0.000000      0.000000      0.000000

 CCSD total energy / hartree       =       -76.064128527955774
 Total times  cpu:       59.1s     wall:       81.0s
