============================== echo of input deck ==============================
 echo
 start H2O
 title "H2O"

 memory total 24 gb

 geometry units angstrom
 symmetry c1
   zmatrix
     O
     H1 O 0.97551
     H2 O 0.97551 H1 104.05
   end
 end

 basis spherical
   * library cc-pVTZ
 end

 tce
   2eorb
   2emet 13
   ccsd
   maxiter 300
 end

set tce:print_integrals T
set tce:qorb 8
set tce:qela 5
set tce:qelb 5

# set tce:qducc T
# set tce:nactv 3
# set tce:nonhf T
# set tce:ducc_model 6

 set tce:printtol 0.02

 task tce
================================================================================

 Output coordinates in angstroms (scale by  1.889725989 to convert to a.u.)

  No.       Tag          Charge          X              Y              Z
 ---- ---------------- ---------- -------------- -------------- --------------
    1 O                    8.0000    -0.09463269     0.00000000    -0.07386869
    2 H1                   1.0000    -0.09463269     0.00000000     0.90164131
    3 H2                   1.0000     0.85169419     0.00000000    -0.31069183

         Total SCF energy =    -76.055290416982

 Vector    2  Occ=2.000000D+00  E=-1.336759D+00

 Vector    3  Occ=2.000000D+00  E=-6.990476D-01

 Vector    4  Occ=2.000000D+00  E=-5.751646D-01

 Vector    5  Occ=2.000000D+00  E=-5.031939D-01

 Vector    6  Occ=0.000000D+00  E= 1.402310D-01

 Vector    7  Occ=0.000000D+00  E= 2.024212D-01

 Vector    8  Occ=0.000000D+00  E= 5.358591D-01

 Vector    9  Occ=0.000000D+00  E= 5.930258D-01

 Vector   10  Occ=0.000000D+00  E= 6.714828D-01

 Vector   11  Occ=0.000000D+00  E= 7.870022D-01

 Vector   12  Occ=0.000000D+00  E= 7.952515D-01

 Vector   13  Occ=0.000000D+00  E= 8.053685D-01

 Vector   14  Occ=0.000000D+00  E= 8.582645D-01

 Vector   15  Occ=0.000000D+00  E= 9.514449D-01

       Multipole analysis of the density wrt the origin
       ------------------------------------------------

     L   x y z        total         open         nuclear
     -   - - -        -----         ----         -------
     0   0 0 0     -0.000000      0.000000     10.000000

     1   1 0 0      0.634830      0.000000      0.000000
     1   0 1 0      0.000000      0.000000      0.000000
     1   0 0 1      0.495538      0.000000      0.000000

     2   2 0 0     -3.959168      0.000000      2.878210
     2   1 1 0     -0.000000      0.000000      0.000000
     2   1 0 1     -0.689023      0.000000     -1.049950
     2   0 2 0     -5.453115      0.000000      0.000000
     2   0 1 1     -0.000000      0.000000      0.000000

 CCSD total energy / hartree       =       -76.064132063246362
 Total times  cpu:       56.9s     wall:       78.0s
