============================== echo of input deck ==============================
 echo
 start H2O
 title "H2O"

 memory total 24 gb

 geometry units angstrom
 symmetry c1
   zmatrix
     O
     H1 O 0.97551
     H2 O 0.97551 H1 104.95
   end
 end

 basis spherical
   * library cc-pVTZ
 end

 tce
   2eorb
   2emet 13
   ccsd
   maxiter 300
 end

set tce:print_integrals T
set tce:qorb 8
set tce:qela 5
set tce:qelb 5

# set tce:qducc T
# set tce:nactv 3
# set tce:nonhf T
# set tce:ducc_model 6

 set tce:printtol 0.02

 task tce
================================================================================

 Output coordinates in angstroms (scale by  1.889725989 to convert to a.u.)

  No.       Tag          Charge          X              Y              Z
 ---- ---------------- ---------- -------------- -------------- --------------
    1 O                    8.0000    -0.09424903     0.00000000    -0.07238518
    2 H1                   1.0000    -0.09424903     0.00000000     0.90312482
    3 H2                   1.0000     0.84824125     0.00000000    -0.32404337

         Total SCF energy =    -76.055302037825

 Vector    2  Occ=2.000000D+00  E=-1.336096D+00

 Vector    3  Occ=2.000000D+00  E=-7.007016D-01

 Vector    4  Occ=2.000000D+00  E=-5.733905D-01

 Vector    5  Occ=2.000000D+00  E=-5.028824D-01

 Vector    6  Occ=0.000000D+00  E= 1.403794D-01

 Vector    7  Occ=0.000000D+00  E= 2.022506D-01

 Vector    8  Occ=0.000000D+00  E= 5.374068D-01

 Vector    9  Occ=0.000000D+00  E= 5.897957D-01

 Vector   10  Occ=0.000000D+00  E= 6.721760D-01

 Vector   11  Occ=0.000000D+00  E= 7.871994D-01

 Vector   12  Occ=0.000000D+00  E= 7.998818D-01

 Vector   13  Occ=0.000000D+00  E= 8.048049D-01

 Vector   14  Occ=0.000000D+00  E= 8.563578D-01

 Vector   15  Occ=0.000000D+00  E= 9.551814D-01

       Multipole analysis of the density wrt the origin
       ------------------------------------------------

     L   x y z        total         open         nuclear
     -   - - -        -----         ----         -------
     0   0 0 0     -0.000000      0.000000     10.000000

     1   1 0 0      0.634182      0.000000      0.000000
     1   0 1 0      0.000000      0.000000      0.000000
     1   0 0 1      0.487065      0.000000      0.000000

     2   2 0 0     -3.970974      0.000000      2.854920
     2   1 1 0     -0.000000      0.000000      0.000000
     2   1 0 1     -0.710609      0.000000     -1.090631
     2   0 2 0     -5.453870      0.000000      0.000000
     2   0 1 1     -0.000000      0.000000      0.000000

 CCSD total energy / hartree       =       -76.064081177165548
 Total times  cpu:       67.4s     wall:       92.2s
