============================== echo of input deck ==============================
 echo
 start H2O
 title "H2O"

 memory total 24 gb

 geometry units angstrom
 symmetry c1
   zmatrix
     O
     H1 O 0.97551
     H2 O 0.97551 H1 104.25
   end
 end

 basis spherical
   * library cc-pVTZ
 end

 tce
   2eorb
   2emet 13
   ccsd
   maxiter 300
 end

set tce:print_integrals T
set tce:qorb 8
set tce:qela 5
set tce:qelb 5

# set tce:qducc T
# set tce:nactv 3
# set tce:nonhf T
# set tce:ducc_model 6

 set tce:printtol 0.02

 task tce
================================================================================

 Output coordinates in angstroms (scale by  1.889725989 to convert to a.u.)

  No.       Tag          Charge          X              Y              Z
 ---- ---------------- ---------- -------------- -------------- --------------
    1 O                    8.0000    -0.09454944     0.00000000    -0.07353850
    2 H1                   1.0000    -0.09454944     0.00000000     0.90197150
    3 H2                   1.0000     0.85094500     0.00000000    -0.31366350

         Total SCF energy =    -76.055296711113

 Vector    2  Occ=2.000000D+00  E=-1.336611D+00

 Vector    3  Occ=2.000000D+00  E=-6.994170D-01

 Vector    4  Occ=2.000000D+00  E=-5.747700D-01

 Vector    5  Occ=2.000000D+00  E=-5.031249D-01

 Vector    6  Occ=0.000000D+00  E= 1.402649D-01

 Vector    7  Occ=0.000000D+00  E= 2.023832D-01

 Vector    8  Occ=0.000000D+00  E= 5.361997D-01

 Vector    9  Occ=0.000000D+00  E= 5.923121D-01

 Vector   10  Occ=0.000000D+00  E= 6.716320D-01

 Vector   11  Occ=0.000000D+00  E= 7.870461D-01

 Vector   12  Occ=0.000000D+00  E= 7.962648D-01

 Vector   13  Occ=0.000000D+00  E= 8.052440D-01

 Vector   14  Occ=0.000000D+00  E= 8.578391D-01

 Vector   15  Occ=0.000000D+00  E= 9.522741D-01

       Multipole analysis of the density wrt the origin
       ------------------------------------------------

     L   x y z        total         open         nuclear
     -   - - -        -----         ----         -------
     0   0 0 0     -0.000000      0.000000     10.000000

     1   1 0 0      0.634698      0.000000      0.000000
     1   0 1 0     -0.000000      0.000000      0.000000
     1   0 0 1      0.493654      0.000000      0.000000

     2   2 0 0     -3.961731      0.000000      2.873149
     2   1 1 0      0.000000      0.000000      0.000000
     2   1 0 1     -0.693856      0.000000     -1.059060
     2   0 2 0     -5.453281      0.000000      0.000000
     2   0 1 1      0.000000      0.000000      0.000000

 CCSD total energy / hartree       =       -76.064124460982057
 Total times  cpu:       56.7s     wall:       77.5s
