============================== echo of input deck ==============================
 echo
 start H2O
 title "H2O"

 memory total 24 gb

 geometry units angstrom
 symmetry c1
   zmatrix
     O
     H1 O 0.97551
     H2 O 0.97551 H1 104.20
   end
 end

 basis spherical
   * library cc-pVTZ
 end

 tce
   2eorb
   2emet 13
   ccsd
   maxiter 300
 end

set tce:print_integrals T
set tce:qorb 8
set tce:qela 5
set tce:qelb 5

# set tce:qducc T
# set tce:nactv 3
# set tce:nonhf T
# set tce:ducc_model 6

 set tce:printtol 0.02

 task tce
================================================================================

 Output coordinates in angstroms (scale by  1.889725989 to convert to a.u.)

  No.       Tag          Charge          X              Y              Z
 ---- ---------------- ---------- -------------- -------------- --------------
    1 O                    8.0000    -0.09457036     0.00000000    -0.07362102
    2 H1                   1.0000    -0.09457036     0.00000000     0.90188898
    3 H2                   1.0000     0.85113327     0.00000000    -0.31292083

         Total SCF energy =    -76.055295337226

 Vector    2  Occ=2.000000D+00  E=-1.336648D+00

 Vector    3  Occ=2.000000D+00  E=-6.993248D-01

 Vector    4  Occ=2.000000D+00  E=-5.748686D-01

 Vector    5  Occ=2.000000D+00  E=-5.031422D-01

 Vector    6  Occ=0.000000D+00  E= 1.402565D-01

 Vector    7  Occ=0.000000D+00  E= 2.023927D-01

 Vector    8  Occ=0.000000D+00  E= 5.361144D-01

 Vector    9  Occ=0.000000D+00  E= 5.924908D-01

 Vector   10  Occ=0.000000D+00  E= 6.715944D-01

 Vector   11  Occ=0.000000D+00  E= 7.870351D-01

 Vector   12  Occ=0.000000D+00  E= 7.960106D-01

 Vector   13  Occ=0.000000D+00  E= 8.052752D-01

 Vector   14  Occ=0.000000D+00  E= 8.579453D-01

 Vector   15  Occ=0.000000D+00  E= 9.520667D-01

       Multipole analysis of the density wrt the origin
       ------------------------------------------------

     L   x y z        total         open         nuclear
     -   - - -        -----         ----         -------
     0   0 0 0     -0.000000      0.000000     10.000000

     1   1 0 0      0.634732      0.000000      0.000000
     1   0 1 0      0.000000      0.000000      0.000000
     1   0 0 1      0.494125      0.000000      0.000000

     2   2 0 0     -3.961087      0.000000      2.874420
     2   1 1 0     -0.000000      0.000000      0.000000
     2   1 0 1     -0.692649      0.000000     -1.056786
     2   0 2 0     -5.453239      0.000000      0.000000
     2   0 1 1     -0.000000      0.000000      0.000000

 CCSD total energy / hartree       =       -76.064126560909955
 Total times  cpu:       55.5s     wall:       75.6s
