============================== echo of input deck ==============================
 echo
 start H2O
 title "H2O"

 memory total 24 gb

 geometry units angstrom
 symmetry c1
   zmatrix
     O
     H1 O 0.97551
     H2 O 0.97551 H1 104.55
   end
 end

 basis spherical
   * library cc-pVTZ
 end

 tce
   2eorb
   2emet 13
   ccsd
   maxiter 300
 end

set tce:print_integrals T
set tce:qorb 8
set tce:qela 5
set tce:qelb 5

# set tce:qducc T
# set tce:nactv 3
# set tce:nonhf T
# set tce:ducc_model 6

 set tce:printtol 0.02

 task tce
================================================================================

 Output coordinates in angstroms (scale by  1.889725989 to convert to a.u.)

  No.       Tag          Charge          X              Y              Z
 ---- ---------------- ---------- -------------- -------------- --------------
    1 O                    8.0000    -0.09442242     0.00000000    -0.07304377
    2 H1                   1.0000    -0.09442242     0.00000000     0.90246623
    3 H2                   1.0000     0.84980178     0.00000000    -0.31811605

         Total SCF energy =    -76.055302167284

 Vector    2  Occ=2.000000D+00  E=-1.336390D+00

 Vector    3  Occ=2.000000D+00  E=-6.999692D-01

 Vector    4  Occ=2.000000D+00  E=-5.741785D-01

 Vector    5  Occ=2.000000D+00  E=-5.030212D-01

 Vector    6  Occ=0.000000D+00  E= 1.403148D-01

 Vector    7  Occ=0.000000D+00  E= 2.023264D-01

 Vector    8  Occ=0.000000D+00  E= 5.367141D-01

 Vector    9  Occ=0.000000D+00  E= 5.912370D-01

 Vector   10  Occ=0.000000D+00  E= 6.718609D-01

 Vector   11  Occ=0.000000D+00  E= 7.871118D-01

 Vector   12  Occ=0.000000D+00  E= 7.978017D-01

 Vector   13  Occ=0.000000D+00  E= 8.050565D-01

 Vector   14  Occ=0.000000D+00  E= 8.572028D-01

 Vector   15  Occ=0.000000D+00  E= 9.535192D-01

       Multipole analysis of the density wrt the origin
       ------------------------------------------------

     L   x y z        total         open         nuclear
     -   - - -        -----         ----         -------
     0   0 0 0     -0.000000      0.000000     10.000000

     1   1 0 0      0.634487      0.000000      0.000000
     1   0 1 0      0.000000      0.000000      0.000000
     1   0 0 1      0.490830      0.000000     -0.000000

     2   2 0 0     -3.965640      0.000000      2.865434
     2   1 1 0     -0.000000      0.000000      0.000000
     2   1 0 1     -0.701067      0.000000     -1.072651
     2   0 2 0     -5.453532      0.000000      0.000000
     2   0 1 1     -0.000000      0.000000      0.000000

 CCSD total energy / hartree       =       -76.064109078567583
 Total times  cpu:       63.7s     wall:       87.4s
