============================== echo of input deck ==============================
 echo
 start H2O
 title "H2O"

 memory total 24 gb

 geometry units angstrom
 symmetry c1
   zmatrix
     O
     H1 O 0.97551
     H2 O 0.97551 H1 104.30
   end
 end

 basis spherical
   * library cc-pVTZ
 end

 tce
   2eorb
   2emet 13
   ccsd
   maxiter 300
 end

set tce:print_integrals T
set tce:qorb 8
set tce:qela 5
set tce:qelb 5

# set tce:qducc T
# set tce:nactv 3
# set tce:nonhf T
# set tce:ducc_model 6

 set tce:printtol 0.02

 task tce
================================================================================

 Output coordinates in angstroms (scale by  1.889725989 to convert to a.u.)

  No.       Tag          Charge          X              Y              Z
 ---- ---------------- ---------- -------------- -------------- --------------
    1 O                    8.0000    -0.09452845     0.00000000    -0.07345600
    2 H1                   1.0000    -0.09452845     0.00000000     0.90205400
    3 H2                   1.0000     0.85075608     0.00000000    -0.31440601

         Total SCF energy =    -76.055297952175

 Vector    2  Occ=2.000000D+00  E=-1.336574D+00

 Vector    3  Occ=2.000000D+00  E=-6.995092D-01

 Vector    4  Occ=2.000000D+00  E=-5.746714D-01

 Vector    5  Occ=2.000000D+00  E=-5.031077D-01

 Vector    6  Occ=0.000000D+00  E= 1.402733D-01

 Vector    7  Occ=0.000000D+00  E= 2.023738D-01

 Vector    8  Occ=0.000000D+00  E= 5.362851D-01

 Vector    9  Occ=0.000000D+00  E= 5.921333D-01

 Vector   10  Occ=0.000000D+00  E= 6.716697D-01

 Vector   11  Occ=0.000000D+00  E= 7.870570D-01

 Vector   12  Occ=0.000000D+00  E= 7.965196D-01

 Vector   13  Occ=0.000000D+00  E= 8.052129D-01

 Vector   14  Occ=0.000000D+00  E= 8.577329D-01

 Vector   15  Occ=0.000000D+00  E= 9.524815D-01

       Multipole analysis of the density wrt the origin
       ------------------------------------------------

     L   x y z        total         open         nuclear
     -   - - -        -----         ----         -------
     0   0 0 0     -0.000000      0.000000     10.000000

     1   1 0 0      0.634664      0.000000      0.000000
     1   0 1 0      0.000000      0.000000      0.000000
     1   0 0 1      0.493183      0.000000      0.000000

     2   2 0 0     -3.962377      0.000000      2.871873
     2   1 1 0     -0.000000      0.000000      0.000000
     2   1 0 1     -0.695061      0.000000     -1.061332
     2   0 2 0     -5.453323      0.000000      0.000000
     2   0 1 1     -0.000000      0.000000      0.000000

 CCSD total energy / hartree       =       -76.064122228426385
 Total times  cpu:       56.9s     wall:       77.5s
