============================== echo of input deck ==============================
 echo
 start H2O
 title "H2O"

 memory total 24 gb

 geometry units angstrom
 symmetry c1
   zmatrix
     O
     H1 O 0.97551
     H2 O 0.97551 H1 104.70
   end
 end

 basis spherical
   * library cc-pVTZ
 end

 tce
   2eorb
   2emet 13
   ccsd
   maxiter 300
 end

set tce:print_integrals T
set tce:qorb 8
set tce:qela 5
set tce:qelb 5

# set tce:qducc T
# set tce:nactv 3
# set tce:nonhf T
# set tce:ducc_model 6

 set tce:printtol 0.02

 task tce
================================================================================

 Output coordinates in angstroms (scale by  1.889725989 to convert to a.u.)

  No.       Tag          Charge          X              Y              Z
 ---- ---------------- ---------- -------------- -------------- --------------
    1 O                    8.0000    -0.09435794     0.00000000    -0.07279666
    2 H1                   1.0000    -0.09435794     0.00000000     0.90271334
    3 H2                   1.0000     0.84922143     0.00000000    -0.32034007

         Total SCF energy =    -76.055303108096

 Vector    2  Occ=2.000000D+00  E=-1.336280D+00

 Vector    3  Occ=2.000000D+00  E=-7.002443D-01

 Vector    4  Occ=2.000000D+00  E=-5.738829D-01

 Vector    5  Occ=2.000000D+00  E=-5.029692D-01

 Vector    6  Occ=0.000000D+00  E= 1.403393D-01

 Vector    7  Occ=0.000000D+00  E= 2.022980D-01

 Vector    8  Occ=0.000000D+00  E= 5.369730D-01

 Vector    9  Occ=0.000000D+00  E= 5.906975D-01

 Vector   10  Occ=0.000000D+00  E= 6.719777D-01

 Vector   11  Occ=0.000000D+00  E= 7.871447D-01

 Vector   12  Occ=0.000000D+00  E= 7.985776D-01

 Vector   13  Occ=0.000000D+00  E= 8.049624D-01

 Vector   14  Occ=0.000000D+00  E= 8.568854D-01

 Vector   15  Occ=0.000000D+00  E= 9.541422D-01

       Multipole analysis of the density wrt the origin
       ------------------------------------------------

     L   x y z        total         open         nuclear
     -   - - -        -----         ----         -------
     0   0 0 0     -0.000000      0.000000     10.000000

     1   1 0 0      0.634376      0.000000      0.000000
     1   0 1 0      0.000000      0.000000      0.000000
     1   0 0 1      0.489418      0.000000      0.000000

     2   2 0 0     -3.967624      0.000000      2.861522
     2   1 1 0     -0.000000      0.000000      0.000000
     2   1 0 1     -0.704655      0.000000     -1.079412
     2   0 2 0     -5.453658      0.000000      0.000000
     2   0 1 1     -0.000000      0.000000      0.000000

 CCSD total energy / hartree       =       -76.064099603074325
 Total times  cpu:       62.1s     wall:       84.7s
