============================== echo of input deck ==============================
 echo
 start H2O
 title "H2O"

 memory total 24 gb

 geometry units angstrom
 symmetry c1
   zmatrix
     O
     H1 O 0.97551
     H2 O 0.97551 H1 105.90
   end
 end

 basis spherical
   * library cc-pVTZ
 end

 tce
   2eorb
   2emet 13
   ccsd
   maxiter 300
 end

set tce:print_integrals T
set tce:qorb 8
set tce:qela 5
set tce:qelb 5

# set tce:qducc T
# set tce:nactv 3
# set tce:nonhf T
# set tce:ducc_model 6

 set tce:printtol 0.02

 task tce
================================================================================

 Output coordinates in angstroms (scale by  1.889725989 to convert to a.u.)

  No.       Tag          Charge          X              Y              Z
 ---- ---------------- ---------- -------------- -------------- --------------
    1 O                    8.0000    -0.09381883     0.00000000    -0.07082600
    2 H1                   1.0000    -0.09381883     0.00000000     0.90468400
    3 H2                   1.0000     0.84436944     0.00000000    -0.33807596

         Total SCF energy =    -76.055268109344

 Vector    2  Occ=2.000000D+00  E=-1.335402D+00

 Vector    3  Occ=2.000000D+00  E=-7.024237D-01

 Vector    4  Occ=2.000000D+00  E=-5.715226D-01

 Vector    5  Occ=2.000000D+00  E=-5.025504D-01

 Vector    6  Occ=0.000000D+00  E= 1.405243D-01

 Vector    7  Occ=0.000000D+00  E= 2.020709D-01

 Vector    8  Occ=0.000000D+00  E= 5.390827D-01

 Vector    9  Occ=0.000000D+00  E= 5.863412D-01

 Vector   10  Occ=0.000000D+00  E= 6.729708D-01

 Vector   11  Occ=0.000000D+00  E= 7.874071D-01

 Vector   12  Occ=0.000000D+00  E= 8.041986D-01

 Vector   13  Occ=0.000000D+00  E= 8.049601D-01

 Vector   14  Occ=0.000000D+00  E= 8.543665D-01

 Vector   15  Occ=0.000000D+00  E= 9.591380D-01

       Multipole analysis of the density wrt the origin
       ------------------------------------------------

     L   x y z        total         open         nuclear
     -   - - -        -----         ----         -------
     0   0 0 0     -0.000000      0.000000     10.000000

     1   1 0 0      0.633349      0.000000      0.000000
     1   0 1 0     -0.000000      0.000000      0.000000
     1   0 0 1      0.478130      0.000000      0.000000

     2   2 0 0     -3.984191      0.000000      2.828917
     2   1 1 0     -0.000000      0.000000      0.000000
     2   1 0 1     -0.732932      0.000000     -1.132666
     2   0 2 0     -5.454690      0.000000      0.000000
     2   0 1 1      0.000000      0.000000      0.000000

 CCSD total energy / hartree       =       -76.063981362353061
 Total times  cpu:       27.7s     wall:       38.1s
