============================== echo of input deck ==============================
 echo
 start H2O
 title "H2O"

 memory total 24 gb

 geometry units angstrom
 symmetry c1
   zmatrix
     O
     H1 O 0.97551
     H2 O 0.97551 H1 105.85
   end
 end

 basis spherical
   * library cc-pVTZ
 end

 tce
   2eorb
   2emet 13
   ccsd
   maxiter 300
 end

set tce:print_integrals T
set tce:qorb 8
set tce:qela 5
set tce:qelb 5

# set tce:qducc T
# set tce:nactv 3
# set tce:nonhf T
# set tce:ducc_model 6

 set tce:printtol 0.02

 task tce
================================================================================

 Output coordinates in angstroms (scale by  1.889725989 to convert to a.u.)

  No.       Tag          Charge          X              Y              Z
 ---- ---------------- ---------- -------------- -------------- --------------
    1 O                    8.0000    -0.09384211     0.00000000    -0.07090789
    2 H1                   1.0000    -0.09384211     0.00000000     0.90460211
    3 H2                   1.0000     0.84457901     0.00000000    -0.33733902

         Total SCF energy =    -76.055271066532

 Vector    2  Occ=2.000000D+00  E=-1.335438D+00

 Vector    3  Occ=2.000000D+00  E=-7.023337D-01

 Vector    4  Occ=2.000000D+00  E=-5.716208D-01

 Vector    5  Occ=2.000000D+00  E=-5.025680D-01

 Vector    6  Occ=0.000000D+00  E= 1.405170D-01

 Vector    7  Occ=0.000000D+00  E= 2.020804D-01

 Vector    8  Occ=0.000000D+00  E= 5.389934D-01

 Vector    9  Occ=0.000000D+00  E= 5.865240D-01

 Vector   10  Occ=0.000000D+00  E= 6.729273D-01

 Vector   11  Occ=0.000000D+00  E= 7.873962D-01

 Vector   12  Occ=0.000000D+00  E= 8.042308D-01

 Vector   13  Occ=0.000000D+00  E= 8.046881D-01

 Vector   14  Occ=0.000000D+00  E= 8.544708D-01

 Vector   15  Occ=0.000000D+00  E= 9.589295D-01

       Multipole analysis of the density wrt the origin
       ------------------------------------------------

     L   x y z        total         open         nuclear
     -   - - -        -----         ----         -------
     0   0 0 0     -0.000000      0.000000     10.000000

     1   1 0 0      0.633397      0.000000      0.000000
     1   0 1 0      0.000000      0.000000      0.000000
     1   0 0 1      0.478600      0.000000      0.000000

     2   2 0 0     -3.983476      0.000000      2.830321
     2   1 1 0     -0.000000      0.000000      0.000000
     2   1 0 1     -0.731769      0.000000     -1.130478
     2   0 2 0     -5.454646      0.000000      0.000000
     2   0 1 1      0.000000      0.000000      0.000000

 CCSD total energy / hartree       =       -76.063987784357650
 Total times  cpu:      278.6s     wall:      383.7s
