============================== echo of input deck ==============================
 echo
 start H2O
 title "H2O"

 memory total 24 gb

 geometry units angstrom
 symmetry c1
   zmatrix
     O
     H1 O 0.97551
     H2 O 0.97551 H1 105.50
   end
 end

 basis spherical
   * library cc-pVTZ
 end

 tce
   2eorb
   2emet 13
   ccsd
   maxiter 300
 end

set tce:print_integrals T
set tce:qorb 8
set tce:qela 5
set tce:qelb 5

# set tce:qducc T
# set tce:nactv 3
# set tce:nonhf T
# set tce:ducc_model 6

 set tce:printtol 0.02

 task tce
================================================================================

 Output coordinates in angstroms (scale by  1.889725989 to convert to a.u.)

  No.       Tag          Charge          X              Y              Z
 ---- ---------------- ---------- -------------- -------------- --------------
    1 O                    8.0000    -0.09400311     0.00000000    -0.07148163
    2 H1                   1.0000    -0.09400311     0.00000000     0.90402837
    3 H2                   1.0000     0.84602803     0.00000000    -0.33217534

         Total SCF energy =    -76.055288133116

 Vector    2  Occ=2.000000D+00  E=-1.335694D+00

 Vector    3  Occ=2.000000D+00  E=-7.017016D-01

 Vector    4  Occ=2.000000D+00  E=-5.723085D-01

 Vector    5  Occ=2.000000D+00  E=-5.026906D-01

 Vector    6  Occ=0.000000D+00  E= 1.404648D-01

 Vector    7  Occ=0.000000D+00  E= 2.021465D-01

 Vector    8  Occ=0.000000D+00  E= 5.383718D-01

 Vector    9  Occ=0.000000D+00  E= 5.878006D-01

 Vector   10  Occ=0.000000D+00  E= 6.726280D-01

 Vector   11  Occ=0.000000D+00  E= 7.873197D-01

 Vector   12  Occ=0.000000D+00  E= 8.027987D-01

 Vector   13  Occ=0.000000D+00  E= 8.044554D-01

 Vector   14  Occ=0.000000D+00  E= 8.552023D-01

 Vector   15  Occ=0.000000D+00  E= 9.574707D-01

       Multipole analysis of the density wrt the origin
       ------------------------------------------------

     L   x y z        total         open         nuclear
     -   - - -        -----         ----         -------
     0   0 0 0     -0.000000      0.000000     10.000000

     1   1 0 0      0.633719      0.000000      0.000000
     1   0 1 0      0.000000      0.000000      0.000000
     1   0 0 1      0.481891      0.000000      0.000000

     2   2 0 0     -3.978532      0.000000      2.840041
     2   1 1 0     -0.000000      0.000000      0.000000
     2   1 0 1     -0.723592      0.000000     -1.115083
     2   0 2 0     -5.454342      0.000000      0.000000
     2   0 1 1     -0.000000      0.000000      0.000000

 CCSD total energy / hartree       =       -76.064029114101871
 Total times  cpu:       86.0s     wall:      117.3s
