============================== echo of input deck ==============================
 echo
 start H2O
 title "H2O"

 memory total 24 gb

 geometry units angstrom
 symmetry c1
   zmatrix
     O
     H1 O 0.97551
     H2 O 0.97551 H1 105.75
   end
 end

 basis spherical
   * library cc-pVTZ
 end

 tce
   2eorb
   2emet 13
   ccsd
   maxiter 300
 end

set tce:print_integrals T
set tce:qorb 8
set tce:qela 5
set tce:qelb 5

# set tce:qducc T
# set tce:nactv 3
# set tce:nonhf T
# set tce:ducc_model 6

 set tce:printtol 0.02

 task tce
================================================================================

 Output coordinates in angstroms (scale by  1.889725989 to convert to a.u.)

  No.       Tag          Charge          X              Y              Z
 ---- ---------------- ---------- -------------- -------------- --------------
    1 O                    8.0000    -0.09388847     0.00000000    -0.07107171
    2 H1                   1.0000    -0.09388847     0.00000000     0.90443829
    3 H2                   1.0000     0.84499624     0.00000000    -0.33586459

         Total SCF energy =    -76.055276592175

 Vector    2  Occ=2.000000D+00  E=-1.335511D+00

 Vector    3  Occ=2.000000D+00  E=-7.021535D-01

 Vector    4  Occ=2.000000D+00  E=-5.718172D-01

 Vector    5  Occ=2.000000D+00  E=-5.026031D-01

 Vector    6  Occ=0.000000D+00  E= 1.405022D-01

 Vector    7  Occ=0.000000D+00  E= 2.020993D-01

 Vector    8  Occ=0.000000D+00  E= 5.388152D-01

 Vector    9  Occ=0.000000D+00  E= 5.868892D-01

 Vector   10  Occ=0.000000D+00  E= 6.728409D-01

 Vector   11  Occ=0.000000D+00  E= 7.873743D-01

 Vector   12  Occ=0.000000D+00  E= 8.041457D-01

 Vector   13  Occ=0.000000D+00  E= 8.042952D-01

 Vector   14  Occ=0.000000D+00  E= 8.546795D-01

 Vector   15  Occ=0.000000D+00  E= 9.585126D-01

       Multipole analysis of the density wrt the origin
       ------------------------------------------------

     L   x y z        total         open         nuclear
     -   - - -        -----         ----         -------
     0   0 0 0     -0.000000      0.000000     10.000000

     1   1 0 0      0.633491      0.000000      0.000000
     1   0 1 0     -0.000000      0.000000      0.000000
     1   0 0 1      0.479540      0.000000      0.000000

     2   2 0 0     -3.982053      0.000000      2.833118
     2   1 1 0      0.000000      0.000000      0.000000
     2   1 0 1     -0.729440      0.000000     -1.126093
     2   0 2 0     -5.454559      0.000000      0.000000
     2   0 1 1      0.000000      0.000000      0.000000

 CCSD total energy / hartree       =       -76.064000240718940
 Total times  cpu:      219.3s     wall:      301.3s
