============================== echo of input deck ==============================
 echo
 start H2O
 title "H2O"

 memory total 24 gb

 geometry units angstrom
 symmetry c1
   zmatrix
     O
     H1 O 0.97551
     H2 O 0.97551 H1 105.35
   end
 end

 basis spherical
   * library cc-pVTZ
 end

 tce
   2eorb
   2emet 13
   ccsd
   maxiter 300
 end

set tce:print_integrals T
set tce:qorb 8
set tce:qela 5
set tce:qelb 5

# set tce:qducc T
# set tce:nactv 3
# set tce:nonhf T
# set tce:ducc_model 6

 set tce:printtol 0.02

 task tce
================================================================================

 Output coordinates in angstroms (scale by  1.889725989 to convert to a.u.)

  No.       Tag          Charge          X              Y              Z
 ---- ---------------- ---------- -------------- -------------- --------------
    1 O                    8.0000    -0.09407104     0.00000000    -0.07172782
    2 H1                   1.0000    -0.09407104     0.00000000     0.90378218
    3 H2                   1.0000     0.84663937     0.00000000    -0.32995964

         Total SCF energy =    -76.055293495030

 Vector    2  Occ=2.000000D+00  E=-1.335803D+00

 Vector    3  Occ=2.000000D+00  E=-7.014297D-01

 Vector    4  Occ=2.000000D+00  E=-5.726034D-01

 Vector    5  Occ=2.000000D+00  E=-5.027430D-01

 Vector    6  Occ=0.000000D+00  E= 1.404419D-01

 Vector    7  Occ=0.000000D+00  E= 2.021749D-01

 Vector    8  Occ=0.000000D+00  E= 5.381072D-01

 Vector    9  Occ=0.000000D+00  E= 5.883461D-01

 Vector   10  Occ=0.000000D+00  E= 6.725026D-01

 Vector   11  Occ=0.000000D+00  E= 7.872869D-01

 Vector   12  Occ=0.000000D+00  E= 8.019968D-01

 Vector   13  Occ=0.000000D+00  E= 8.045511D-01

 Vector   14  Occ=0.000000D+00  E= 8.555167D-01

 Vector   15  Occ=0.000000D+00  E= 9.568460D-01

       Multipole analysis of the density wrt the origin
       ------------------------------------------------

     L   x y z        total         open         nuclear
     -   - - -        -----         ----         -------
     0   0 0 0     -0.000000      0.000000     10.000000

     1   1 0 0      0.633850      0.000000     -0.000000
     1   0 1 0      0.000000      0.000000      0.000000
     1   0 0 1      0.483302      0.000000      0.000000

     2   2 0 0     -3.976445      0.000000      2.844147
     2   1 1 0     -0.000000      0.000000      0.000000
     2   1 0 1     -0.720068      0.000000     -1.108446
     2   0 2 0     -5.454213      0.000000      0.000000
     2   0 1 1     -0.000000      0.000000      0.000000

 CCSD total energy / hartree       =       -76.064044879548064
 Total times  cpu:       79.0s     wall:      107.5s
