============================== echo of input deck ==============================
 echo
 start H2O
 title "H2O"

 memory total 24 gb

 geometry units angstrom
 symmetry c1
   zmatrix
     O
     H1 O 0.97551
     H2 O 0.97551 H1 105.60
   end
 end

 basis spherical
   * library cc-pVTZ
 end

 tce
   2eorb
   2emet 13
   ccsd
   maxiter 300
 end

set tce:print_integrals T
set tce:qorb 8
set tce:qela 5
set tce:qelb 5

# set tce:qducc T
# set tce:nactv 3
# set tce:nonhf T
# set tce:ducc_model 6

 set tce:printtol 0.02

 task tce
================================================================================

 Output coordinates in angstroms (scale by  1.889725989 to convert to a.u.)

  No.       Tag          Charge          X              Y              Z
 ---- ---------------- ---------- -------------- -------------- --------------
    1 O                    8.0000    -0.09395747     0.00000000    -0.07131760
    2 H1                   1.0000    -0.09395747     0.00000000     0.90419240
    3 H2                   1.0000     0.84561724     0.00000000    -0.33365158

         Total SCF energy =    -76.055283906945

 Vector    2  Occ=2.000000D+00  E=-1.335621D+00

 Vector    3  Occ=2.000000D+00  E=-7.018826D-01

 Vector    4  Occ=2.000000D+00  E=-5.721119D-01

 Vector    5  Occ=2.000000D+00  E=-5.026556D-01

 Vector    6  Occ=0.000000D+00  E= 1.404799D-01

 Vector    7  Occ=0.000000D+00  E= 2.021276D-01

 Vector    8  Occ=0.000000D+00  E= 5.385488D-01

 Vector    9  Occ=0.000000D+00  E= 5.874364D-01

 Vector   10  Occ=0.000000D+00  E= 6.727126D-01

 Vector   11  Occ=0.000000D+00  E= 7.873416D-01

 Vector   12  Occ=0.000000D+00  E= 8.033359D-01

 Vector   13  Occ=0.000000D+00  E= 8.043914D-01

 Vector   14  Occ=0.000000D+00  E= 8.549930D-01

 Vector   15  Occ=0.000000D+00  E= 9.578874D-01

       Multipole analysis of the density wrt the origin
       ------------------------------------------------

     L   x y z        total         open         nuclear
     -   - - -        -----         ----         -------
     0   0 0 0     -0.000000      0.000000     10.000000

     1   1 0 0      0.633629      0.000000      0.000000
     1   0 1 0      0.000000      0.000000      0.000000
     1   0 0 1      0.480951      0.000000      0.000000

     2   2 0 0     -3.979934      0.000000      2.837284
     2   1 1 0      0.000000      0.000000      0.000000
     2   1 0 1     -0.725935      0.000000     -1.119495
     2   0 2 0     -5.454429      0.000000      0.000000
     2   0 1 1     -0.000000      0.000000      0.000000

 CCSD total energy / hartree       =       -76.064017953956963
 Total times  cpu:      167.3s     wall:      234.8s
