============================== echo of input deck ==============================
 echo
 start H2O
 title "H2O"

 memory total 24 gb

 geometry units angstrom
 symmetry c1
   zmatrix
     O
     H1 O 0.97551
     H2 O 0.97551 H1 105.05
   end
 end

 basis spherical
   * library cc-pVTZ
 end

 tce
   2eorb
   2emet 13
   ccsd
   maxiter 300
 end

set tce:print_integrals T
set tce:qorb 8
set tce:qela 5
set tce:qelb 5

# set tce:qducc T
# set tce:nactv 3
# set tce:nonhf T
# set tce:ducc_model 6

 set tce:printtol 0.02

 task tce
================================================================================

 Output coordinates in angstroms (scale by  1.889725989 to convert to a.u.)

  No.       Tag          Charge          X              Y              Z
 ---- ---------------- ---------- -------------- -------------- --------------
    1 O                    8.0000    -0.09420496     0.00000000    -0.07222072
    2 H1                   1.0000    -0.09420496     0.00000000     0.90328928
    3 H2                   1.0000     0.84784465     0.00000000    -0.32552348

         Total SCF energy =    -76.055300688773

 Vector    2  Occ=2.000000D+00  E=-1.336023D+00

 Vector    3  Occ=2.000000D+00  E=-7.008840D-01

 Vector    4  Occ=2.000000D+00  E=-5.731937D-01

 Vector    5  Occ=2.000000D+00  E=-5.028476D-01

 Vector    6  Occ=0.000000D+00  E= 1.403952D-01

 Vector    7  Occ=0.000000D+00  E= 2.022317D-01

 Vector    8  Occ=0.000000D+00  E= 5.375812D-01

 Vector    9  Occ=0.000000D+00  E= 5.894340D-01

 Vector   10  Occ=0.000000D+00  E= 6.722565D-01

 Vector   11  Occ=0.000000D+00  E= 7.872213D-01

 Vector   12  Occ=0.000000D+00  E= 8.004073D-01

 Vector   13  Occ=0.000000D+00  E= 8.047416D-01

 Vector   14  Occ=0.000000D+00  E= 8.561471D-01

 Vector   15  Occ=0.000000D+00  E= 9.555974D-01

       Multipole analysis of the density wrt the origin
       ------------------------------------------------

     L   x y z        total         open         nuclear
     -   - - -        -----         ----         -------
     0   0 0 0     -0.000000      0.000000     10.000000

     1   1 0 0      0.634102      0.000000      0.000000
     1   0 1 0      0.000000      0.000000      0.000000
     1   0 0 1      0.486124      0.000000      0.000000

     2   2 0 0     -3.972329      0.000000      2.852251
     2   1 1 0     -0.000000      0.000000      0.000000
     2   1 0 1     -0.712982      0.000000     -1.095100
     2   0 2 0     -5.453955      0.000000      0.000000
     2   0 1 1     -0.000000      0.000000      0.000000

 CCSD total energy / hartree       =       -76.064072887673106
 Total times  cpu:       69.1s     wall:       95.0s
