============================== echo of input deck ==============================
 echo
 start H2O
 title "H2O"

 memory total 24 gb

 geometry units angstrom
 symmetry c1
   zmatrix
     O
     H1 O 0.97551
     H2 O 0.97551 H1 106.30
   end
 end

 basis spherical
   * library cc-pVTZ
 end

 tce
   2eorb
   2emet 13
   ccsd
   maxiter 300
 end

set tce:print_integrals T
set tce:qorb 8
set tce:qela 5
set tce:qelb 5

# set tce:qducc T
# set tce:nactv 3
# set tce:nonhf T
# set tce:ducc_model 6

 set tce:printtol 0.02

 task tce
================================================================================

 Output coordinates in angstroms (scale by  1.889725989 to convert to a.u.)

  No.       Tag          Charge          X              Y              Z
 ---- ---------------- ---------- -------------- -------------- --------------
    1 O                    8.0000    -0.09362997     0.00000000    -0.07017168
    2 H1                   1.0000    -0.09362997     0.00000000     0.90533832
    3 H2                   1.0000     0.84266969     0.00000000    -0.34396486

         Total SCF energy =    -76.055239800367

 Vector    2  Occ=2.000000D+00  E=-1.335111D+00

 Vector    3  Occ=2.000000D+00  E=-7.031415D-01

 Vector    4  Occ=2.000000D+00  E=-5.707375D-01

 Vector    5  Occ=2.000000D+00  E=-5.024097D-01

 Vector    6  Occ=0.000000D+00  E= 1.405818D-01

 Vector    7  Occ=0.000000D+00  E= 2.019953D-01

 Vector    8  Occ=0.000000D+00  E= 5.398011D-01

 Vector    9  Occ=0.000000D+00  E= 5.848755D-01

 Vector   10  Occ=0.000000D+00  E= 6.733256D-01

 Vector   11  Occ=0.000000D+00  E= 7.874944D-01

 Vector   12  Occ=0.000000D+00  E= 8.039394D-01

 Vector   13  Occ=0.000000D+00  E= 8.071545D-01

 Vector   14  Occ=0.000000D+00  E= 8.535347D-01

 Vector   15  Occ=0.000000D+00  E= 9.608071D-01

       Multipole analysis of the density wrt the origin
       ------------------------------------------------

     L   x y z        total         open         nuclear
     -   - - -        -----         ----         -------
     0   0 0 0     -0.000000      0.000000     10.000000

     1   1 0 0      0.632952      0.000000      0.000000
     1   0 1 0      0.000000      0.000000      0.000000
     1   0 0 1      0.474371      0.000000      0.000000

     2   2 0 0     -3.989985      0.000000      2.817539
     2   1 1 0     -0.000000      0.000000      0.000000
     2   1 0 1     -0.742183      0.000000     -1.150076
     2   0 2 0     -5.455042      0.000000      0.000000
     2   0 1 1     -0.000000      0.000000      0.000000

 CCSD total energy / hartree       =       -76.063925347823414
 Total times  cpu:       25.2s     wall:       35.3s
