============================== echo of input deck ==============================
 echo
 start H2O
 title "H2O"

 memory total 24 gb

 geometry units angstrom
 symmetry c1
   zmatrix
     O
     H1 O 0.97551
     H2 O 0.97551 H1 106.75
   end
 end

 basis spherical
   * library cc-pVTZ
 end

 tce
   2eorb
   2emet 13
   ccsd
   maxiter 300
 end

set tce:print_integrals T
set tce:qorb 8
set tce:qela 5
set tce:qelb 5

# set tce:qducc T
# set tce:nactv 3
# set tce:nonhf T
# set tce:ducc_model 6

 set tce:printtol 0.02

 task tce
================================================================================

 Output coordinates in angstroms (scale by  1.889725989 to convert to a.u.)

  No.       Tag          Charge          X              Y              Z
 ---- ---------------- ---------- -------------- -------------- --------------
    1 O                    8.0000    -0.09341204     0.00000000    -0.06943717
    2 H1                   1.0000    -0.09341204     0.00000000     0.90607283
    3 H2                   1.0000     0.84070839     0.00000000    -0.35057551

         Total SCF energy =    -76.055198117879

 Vector    2  Occ=2.000000D+00  E=-1.334785D+00

 Vector    3  Occ=2.000000D+00  E=-7.039437D-01

 Vector    4  Occ=2.000000D+00  E=-5.698554D-01

 Vector    5  Occ=2.000000D+00  E=-5.022507D-01

 Vector    6  Occ=0.000000D+00  E= 1.406438D-01

 Vector    7  Occ=0.000000D+00  E= 2.019104D-01

 Vector    8  Occ=0.000000D+00  E= 5.406182D-01

 Vector    9  Occ=0.000000D+00  E= 5.832202D-01

 Vector   10  Occ=0.000000D+00  E= 6.737395D-01

 Vector   11  Occ=0.000000D+00  E= 7.875926D-01

 Vector   12  Occ=0.000000D+00  E= 8.036449D-01

 Vector   13  Occ=0.000000D+00  E= 8.096614D-01

 Vector   14  Occ=0.000000D+00  E= 8.526036D-01

 Vector   15  Occ=0.000000D+00  E= 9.626867D-01

       Multipole analysis of the density wrt the origin
       ------------------------------------------------

     L   x y z        total         open         nuclear
     -   - - -        -----         ----         -------
     0   0 0 0     -0.000000      0.000000     10.000000

     1   1 0 0      0.632473      0.000000     -0.000000
     1   0 1 0     -0.000000      0.000000      0.000000
     1   0 0 1      0.470144      0.000000      0.000000

     2   2 0 0     -3.996665      0.000000      2.804439
     2   1 1 0      0.000000      0.000000      0.000000
     2   1 0 1     -0.752483      0.000000     -1.169451
     2   0 2 0     -5.455442      0.000000      0.000000
     2   0 1 1     -0.000000      0.000000      0.000000

 CCSD total energy / hartree       =       -76.063852526183837
 Total times  cpu:       22.2s     wall:       31.2s
