============================== echo of input deck ==============================
 echo
 start H2O
 title "H2O"

 memory total 24 gb

 geometry units angstrom
 symmetry c1
   zmatrix
     O
     H1 O 0.97551
     H2 O 0.97551 H1 106.60
   end
 end

 basis spherical
   * library cc-pVTZ
 end

 tce
   2eorb
   2emet 13
   ccsd
   maxiter 300
 end

set tce:print_integrals T
set tce:qorb 8
set tce:qela 5
set tce:qelb 5

# set tce:qducc T
# set tce:nactv 3
# set tce:nonhf T
# set tce:ducc_model 6

 set tce:printtol 0.02

 task tce
================================================================================

 Output coordinates in angstroms (scale by  1.889725989 to convert to a.u.)

  No.       Tag          Charge          X              Y              Z
 ---- ---------------- ---------- -------------- -------------- --------------
    1 O                    8.0000    -0.09348533     0.00000000    -0.06968181
    2 H1                   1.0000    -0.09348533     0.00000000     0.90582819
    3 H2                   1.0000     0.84136793     0.00000000    -0.34837367

         Total SCF energy =    -76.055213164537

 Vector    2  Occ=2.000000D+00  E=-1.334893D+00

 Vector    3  Occ=2.000000D+00  E=-7.036769D-01

 Vector    4  Occ=2.000000D+00  E=-5.701493D-01

 Vector    5  Occ=2.000000D+00  E=-5.023038D-01

 Vector    6  Occ=0.000000D+00  E= 1.406234D-01

 Vector    7  Occ=0.000000D+00  E= 2.019387D-01

 Vector    8  Occ=0.000000D+00  E= 5.403448D-01

 Vector    9  Occ=0.000000D+00  E= 5.837727D-01

 Vector   10  Occ=0.000000D+00  E= 6.735998D-01

 Vector   11  Occ=0.000000D+00  E= 7.875599D-01

 Vector   12  Occ=0.000000D+00  E= 8.037434D-01

 Vector   13  Occ=0.000000D+00  E= 8.088213D-01

 Vector   14  Occ=0.000000D+00  E= 8.529135D-01

 Vector   15  Occ=0.000000D+00  E= 9.620600D-01

       Multipole analysis of the density wrt the origin
       ------------------------------------------------

     L   x y z        total         open         nuclear
     -   - - -        -----         ----         -------
     0   0 0 0     -0.000000      0.000000     10.000000

     1   1 0 0      0.632637      0.000000      0.000000
     1   0 1 0      0.000000      0.000000      0.000000
     1   0 0 1      0.471553      0.000000      0.000000

     2   2 0 0     -3.994419      0.000000      2.808840
     2   1 1 0      0.000000      0.000000      0.000000
     2   1 0 1     -0.749062      0.000000     -1.163018
     2   0 2 0     -5.455308      0.000000      0.000000
     2   0 1 1     -0.000000      0.000000      0.000000

 CCSD total energy / hartree       =       -76.063877948897215
 Total times  cpu:       23.1s     wall:       31.5s
