============================== echo of input deck ==============================
 echo
 start H2O
 title "H2O"

 memory total 24 gb

 geometry units angstrom
 symmetry c1
   zmatrix
     O
     H1 O 0.97551
     H2 O 0.97551 H1 106.65
   end
 end

 basis spherical
   * library cc-pVTZ
 end

 tce
   2eorb
   2emet 13
   ccsd
   maxiter 300
 end

set tce:print_integrals T
set tce:qorb 8
set tce:qela 5
set tce:qelb 5

# set tce:qducc T
# set tce:nactv 3
# set tce:nonhf T
# set tce:ducc_model 6

 set tce:printtol 0.02

 task tce
================================================================================

 Output coordinates in angstroms (scale by  1.889725989 to convert to a.u.)

  No.       Tag          Charge          X              Y              Z
 ---- ---------------- ---------- -------------- -------------- --------------
    1 O                    8.0000    -0.09346097     0.00000000    -0.06960024
    2 H1                   1.0000    -0.09346097     0.00000000     0.90590976
    3 H2                   1.0000     0.84114872     0.00000000    -0.34910781

         Total SCF energy =    -76.055208276807

 Vector    2  Occ=2.000000D+00  E=-1.334857D+00

 Vector    3  Occ=2.000000D+00  E=-7.037659D-01

 Vector    4  Occ=2.000000D+00  E=-5.700514D-01

 Vector    5  Occ=2.000000D+00  E=-5.022861D-01

 Vector    6  Occ=0.000000D+00  E= 1.406303D-01

 Vector    7  Occ=0.000000D+00  E= 2.019292D-01

 Vector    8  Occ=0.000000D+00  E= 5.404358D-01

 Vector    9  Occ=0.000000D+00  E= 5.835886D-01

 Vector   10  Occ=0.000000D+00  E= 6.736462D-01

 Vector   11  Occ=0.000000D+00  E= 7.875708D-01

 Vector   12  Occ=0.000000D+00  E= 8.037106D-01

 Vector   13  Occ=0.000000D+00  E= 8.091009D-01

 Vector   14  Occ=0.000000D+00  E= 8.528101D-01

 Vector   15  Occ=0.000000D+00  E= 9.622689D-01

       Multipole analysis of the density wrt the origin
       ------------------------------------------------

     L   x y z        total         open         nuclear
     -   - - -        -----         ----         -------
     0   0 0 0     -0.000000      0.000000     10.000000

     1   1 0 0      0.632583      0.000000      0.000000
     1   0 1 0     -0.000000      0.000000      0.000000
     1   0 0 1      0.471083      0.000000      0.000000

     2   2 0 0     -3.995166      0.000000      2.807377
     2   1 1 0      0.000000      0.000000      0.000000
     2   1 0 1     -0.750204      0.000000     -1.165165
     2   0 2 0     -5.455353      0.000000      0.000000
     2   0 1 1      0.000000      0.000000      0.000000

 CCSD total energy / hartree       =       -76.063869602065395
 Total times  cpu:       23.5s     wall:       32.3s
