============================== echo of input deck ==============================
 echo
 start H2O
 title "H2O"

 memory total 24 gb

 geometry units angstrom
 symmetry c1
   zmatrix
     O
     H1 O 0.97551
     H2 O 0.97551 H1 107.05
   end
 end

 basis spherical
   * library cc-pVTZ
 end

 tce
   2eorb
   2emet 13
   ccsd
   maxiter 300
 end

set tce:print_integrals T
set tce:qorb 8
set tce:qela 5
set tce:qelb 5

# set tce:qducc T
# set tce:nactv 3
# set tce:nonhf T
# set tce:ducc_model 6

 set tce:printtol 0.02

 task tce
================================================================================

 Output coordinates in angstroms (scale by  1.889725989 to convert to a.u.)

  No.       Tag          Charge          X              Y              Z
 ---- ---------------- ---------- -------------- -------------- --------------
    1 O                    8.0000    -0.09326356     0.00000000    -0.06894845
    2 H1                   1.0000    -0.09326356     0.00000000     0.90656155
    3 H2                   1.0000     0.83937204     0.00000000    -0.35497396

         Total SCF energy =    -76.055164581861

 Vector    2  Occ=2.000000D+00  E=-1.334568D+00

 Vector    3  Occ=2.000000D+00  E=-7.044754D-01

 Vector    4  Occ=2.000000D+00  E=-5.692680D-01

 Vector    5  Occ=2.000000D+00  E=-5.021443D-01

 Vector    6  Occ=0.000000D+00  E= 1.406838D-01

 Vector    7  Occ=0.000000D+00  E= 2.018537D-01

 Vector    8  Occ=0.000000D+00  E= 5.411683D-01

 Vector    9  Occ=0.000000D+00  E= 5.821133D-01

 Vector   10  Occ=0.000000D+00  E= 6.740241D-01

 Vector   11  Occ=0.000000D+00  E= 7.876580D-01

 Vector   12  Occ=0.000000D+00  E= 8.034466D-01

 Vector   13  Occ=0.000000D+00  E= 8.113547D-01

 Vector   14  Occ=0.000000D+00  E= 8.519857D-01

 Vector   15  Occ=0.000000D+00  E= 9.639407D-01

       Multipole analysis of the density wrt the origin
       ------------------------------------------------

     L   x y z        total         open         nuclear
     -   - - -        -----         ----         -------
     0   0 0 0     -0.000000      0.000000     10.000000

     1   1 0 0      0.632134      0.000000      0.000000
     1   0 1 0     -0.000000      0.000000      0.000000
     1   0 0 1      0.467328      0.000000      0.000000

     2   2 0 0     -4.001211      0.000000      2.795530
     2   1 1 0      0.000000      0.000000      0.000000
     2   1 0 1     -0.759284      0.000000     -1.182241
     2   0 2 0     -5.455712      0.000000      0.000000
     2   0 1 1      0.000000      0.000000      0.000000

 CCSD total energy / hartree       =       -76.063798249614791
 Total times  cpu:       25.3s     wall:       34.8s
