============================== echo of input deck ==============================
 echo
 start H2O
 title "H2O"

 memory total 24 gb

 geometry units angstrom
 symmetry c1
   zmatrix
     O
     H1 O 0.97551
     H2 O 0.97551 H1 107.30
   end
 end

 basis spherical
   * library cc-pVTZ
 end

 tce
   2eorb
   2emet 13
   ccsd
   maxiter 300
 end

set tce:print_integrals T
set tce:qorb 8
set tce:qela 5
set tce:qelb 5

# set tce:qducc T
# set tce:nactv 3
# set tce:nonhf T
# set tce:ducc_model 6

 set tce:printtol 0.02

 task tce
================================================================================

 Output coordinates in angstroms (scale by  1.889725989 to convert to a.u.)

  No.       Tag          Charge          X              Y              Z
 ---- ---------------- ---------- -------------- -------------- --------------
    1 O                    8.0000    -0.09313787     0.00000000    -0.06854178
    2 H1                   1.0000    -0.09313787     0.00000000     0.90696822
    3 H2                   1.0000     0.83824084     0.00000000    -0.35863395

         Total SCF energy =    -76.055133142773

 Vector    2  Occ=2.000000D+00  E=-1.334387D+00

 Vector    3  Occ=2.000000D+00  E=-7.049166D-01

 Vector    4  Occ=2.000000D+00  E=-5.687789D-01

 Vector    5  Occ=2.000000D+00  E=-5.020554D-01

 Vector    6  Occ=0.000000D+00  E= 1.407161D-01

 Vector    7  Occ=0.000000D+00  E= 2.018066D-01

 Vector    8  Occ=0.000000D+00  E= 5.416298D-01

 Vector    9  Occ=0.000000D+00  E= 5.811890D-01

 Vector   10  Occ=0.000000D+00  E= 6.742667D-01

 Vector   11  Occ=0.000000D+00  E= 7.877126D-01

 Vector   12  Occ=0.000000D+00  E= 8.032803D-01

 Vector   13  Occ=0.000000D+00  E= 8.127789D-01

 Vector   14  Occ=0.000000D+00  E= 8.514724D-01

 Vector   15  Occ=0.000000D+00  E= 9.649862D-01

       Multipole analysis of the density wrt the origin
       ------------------------------------------------

     L   x y z        total         open         nuclear
     -   - - -        -----         ----         -------
     0   0 0 0     -0.000000      0.000000     10.000000

     1   1 0 0      0.631839      0.000000      0.000000
     1   0 1 0      0.000000      0.000000      0.000000
     1   0 0 1      0.464982      0.000000      0.000000

     2   2 0 0     -4.005057      0.000000      2.788000
     2   1 1 0     -0.000000      0.000000      0.000000
     2   1 0 1     -0.764912      0.000000     -1.192821
     2   0 2 0     -5.455939      0.000000      0.000000
     2   0 1 1     -0.000000      0.000000      0.000000

 CCSD total energy / hartree       =       -76.063749539046398
 Total times  cpu:       22.3s     wall:       31.0s
