============================== echo of input deck ==============================
 echo
 start H2O
 title "H2O"

 memory total 24 gb

 geometry units angstrom
 symmetry c1
   zmatrix
     O
     H1 O 0.97551
     H2 O 0.97551 H1 107.60
   end
 end

 basis spherical
   * library cc-pVTZ
 end

 tce
   2eorb
   2emet 13
   ccsd
   maxiter 300
 end

set tce:print_integrals T
set tce:qorb 8
set tce:qela 5
set tce:qelb 5

# set tce:qducc T
# set tce:nactv 3
# set tce:nonhf T
# set tce:ducc_model 6

 set tce:printtol 0.02

 task tce
================================================================================

 Output coordinates in angstroms (scale by  1.889725989 to convert to a.u.)

  No.       Tag          Charge          X              Y              Z
 ---- ---------------- ---------- -------------- -------------- --------------
    1 O                    8.0000    -0.09298470     0.00000000    -0.06805451
    2 H1                   1.0000    -0.09298470     0.00000000     0.90745549
    3 H2                   1.0000     0.83686233     0.00000000    -0.36301937

         Total SCF energy =    -76.055091245669

 Vector    2  Occ=2.000000D+00  E=-1.334171D+00

 Vector    3  Occ=2.000000D+00  E=-7.054438D-01

 Vector    4  Occ=2.000000D+00  E=-5.681924D-01

 Vector    5  Occ=2.000000D+00  E=-5.019484D-01

 Vector    6  Occ=0.000000D+00  E= 1.407539D-01

 Vector    7  Occ=0.000000D+00  E= 2.017500D-01

 Vector    8  Occ=0.000000D+00  E= 5.421875D-01

 Vector    9  Occ=0.000000D+00  E= 5.800780D-01

 Vector   10  Occ=0.000000D+00  E= 6.745644D-01

 Vector   11  Occ=0.000000D+00  E= 7.877780D-01

 Vector   12  Occ=0.000000D+00  E= 8.030792D-01

 Vector   13  Occ=0.000000D+00  E= 8.145035D-01

 Vector   14  Occ=0.000000D+00  E= 8.508585D-01

 Vector   15  Occ=0.000000D+00  E= 9.662413D-01

       Multipole analysis of the density wrt the origin
       ------------------------------------------------

     L   x y z        total         open         nuclear
     -   - - -        -----         ----         -------
     0   0 0 0     -0.000000      0.000000     10.000000

     1   1 0 0      0.631471      0.000000      0.000000
     1   0 1 0      0.000000      0.000000      0.000000
     1   0 0 1      0.462167      0.000000      0.000000

     2   2 0 0     -4.009740      0.000000      2.778838
     2   1 1 0     -0.000000      0.000000      0.000000
     2   1 0 1     -0.771616      0.000000     -1.205422
     2   0 2 0     -5.456213      0.000000      0.000000
     2   0 1 1     -0.000000      0.000000      0.000000

 CCSD total energy / hartree       =       -76.063686931719957
 Total times  cpu:       23.1s     wall:       31.6s
