============================== echo of input deck ==============================
 echo
 start H2O
 title "H2O"

 memory total 24 gb

 geometry units angstrom
 symmetry c1
   zmatrix
     O
     H1 O 0.97551
     H2 O 0.97551 H1 107.45
   end
 end

 basis spherical
   * library cc-pVTZ
 end

 tce
   2eorb
   2emet 13
   ccsd
   maxiter 300
 end

set tce:print_integrals T
set tce:qorb 8
set tce:qela 5
set tce:qelb 5

# set tce:qducc T
# set tce:nactv 3
# set tce:nonhf T
# set tce:ducc_model 6

 set tce:printtol 0.02

 task tce
================================================================================

 Output coordinates in angstroms (scale by  1.889725989 to convert to a.u.)

  No.       Tag          Charge          X              Y              Z
 ---- ---------------- ---------- -------------- -------------- --------------
    1 O                    8.0000    -0.09306161     0.00000000    -0.06829805
    2 H1                   1.0000    -0.09306161     0.00000000     0.90721195
    3 H2                   1.0000     0.83755445     0.00000000    -0.36082756

         Total SCF energy =    -76.055112761515

 Vector    2  Occ=2.000000D+00  E=-1.334279D+00

 Vector    3  Occ=2.000000D+00  E=-7.051805D-01

 Vector    4  Occ=2.000000D+00  E=-5.684856D-01

 Vector    5  Occ=2.000000D+00  E=-5.020019D-01

 Vector    6  Occ=0.000000D+00  E= 1.407351D-01

 Vector    7  Occ=0.000000D+00  E= 2.017783D-01

 Vector    8  Occ=0.000000D+00  E= 5.419081D-01

 Vector    9  Occ=0.000000D+00  E= 5.806338D-01

 Vector   10  Occ=0.000000D+00  E= 6.744147D-01

 Vector   11  Occ=0.000000D+00  E= 7.877453D-01

 Vector   12  Occ=0.000000D+00  E= 8.031799D-01

 Vector   13  Occ=0.000000D+00  E= 8.136391D-01

 Vector   14  Occ=0.000000D+00  E= 8.511652D-01

 Vector   15  Occ=0.000000D+00  E= 9.656137D-01

       Multipole analysis of the density wrt the origin
       ------------------------------------------------

     L   x y z        total         open         nuclear
     -   - - -        -----         ----         -------
     0   0 0 0     -0.000000      0.000000     10.000000

     1   1 0 0      0.631657      0.000000      0.000000
     1   0 1 0      0.000000      0.000000      0.000000
     1   0 0 1      0.463574      0.000000      0.000000

     2   2 0 0     -4.007389      0.000000      2.783436
     2   1 1 0      0.000000      0.000000      0.000000
     2   1 0 1     -0.768271      0.000000     -1.199135
     2   0 2 0     -5.456076      0.000000      0.000000
     2   0 1 1      0.000000      0.000000      0.000000

 CCSD total energy / hartree       =       -76.063718800507672
 Total times  cpu:       23.3s     wall:       31.9s
