============================== echo of input deck ==============================
 echo
 start H2O
 title "H2O"

 memory total 24 gb

 geometry units angstrom
 symmetry c1
   zmatrix
     O
     H1 O 0.97551
     H2 O 0.97551 H1 107.20
   end
 end

 basis spherical
   * library cc-pVTZ
 end

 tce
   2eorb
   2emet 13
   ccsd
   maxiter 300
 end

set tce:print_integrals T
set tce:qorb 8
set tce:qela 5
set tce:qelb 5

# set tce:qducc T
# set tce:nactv 3
# set tce:nonhf T
# set tce:ducc_model 6

 set tce:printtol 0.02

 task tce
================================================================================

 Output coordinates in angstroms (scale by  1.889725989 to convert to a.u.)

  No.       Tag          Charge          X              Y              Z
 ---- ---------------- ---------- -------------- -------------- --------------
    1 O                    8.0000    -0.09318836     0.00000000    -0.06870438
    2 H1                   1.0000    -0.09318836     0.00000000     0.90680562
    3 H2                   1.0000     0.83869524     0.00000000    -0.35717054

         Total SCF energy =    -76.055146098381

 Vector    2  Occ=2.000000D+00  E=-1.334460D+00

 Vector    3  Occ=2.000000D+00  E=-7.047404D-01

 Vector    4  Occ=2.000000D+00  E=-5.689745D-01

 Vector    5  Occ=2.000000D+00  E=-5.020910D-01

 Vector    6  Occ=0.000000D+00  E= 1.407033D-01

 Vector    7  Occ=0.000000D+00  E= 2.018254D-01

 Vector    8  Occ=0.000000D+00  E= 5.414448D-01

 Vector    9  Occ=0.000000D+00  E= 5.815589D-01

 Vector   10  Occ=0.000000D+00  E= 6.741691D-01

 Vector   11  Occ=0.000000D+00  E= 7.876908D-01

 Vector   12  Occ=0.000000D+00  E= 8.033470D-01

 Vector   13  Occ=0.000000D+00  E= 8.122078D-01

 Vector   14  Occ=0.000000D+00  E= 8.516775D-01

 Vector   15  Occ=0.000000D+00  E= 9.645680D-01

       Multipole analysis of the density wrt the origin
       ------------------------------------------------

     L   x y z        total         open         nuclear
     -   - - -        -----         ----         -------
     0   0 0 0     -0.000000      0.000000     10.000000

     1   1 0 0      0.631958      0.000000      0.000000
     1   0 1 0      0.000000      0.000000      0.000000
     1   0 0 1      0.465920      0.000000      0.000000

     2   2 0 0     -4.003513      0.000000      2.791024
     2   1 1 0     -0.000000      0.000000      0.000000
     2   1 0 1     -0.762665      0.000000     -1.188598
     2   0 2 0     -5.455848      0.000000      0.000000
     2   0 1 1      0.000000      0.000000      0.000000

 CCSD total energy / hartree       =       -76.063769401865073
 Total times  cpu:       22.7s     wall:       31.2s
