============================== echo of input deck ==============================
 echo
 start H2O
 title "H2O"

 memory total 24 gb

 geometry units angstrom
 symmetry c1
   zmatrix
     O
     H1 O 0.97551
     H2 O 0.97551 H1 107.85
   end
 end

 basis spherical
   * library cc-pVTZ
 end

 tce
   2eorb
   2emet 13
   ccsd
   maxiter 300
 end

set tce:print_integrals T
set tce:qorb 8
set tce:qela 5
set tce:qelb 5

# set tce:qducc T
# set tce:nactv 3
# set tce:nonhf T
# set tce:ducc_model 6

 set tce:printtol 0.02

 task tce
================================================================================

 Output coordinates in angstroms (scale by  1.889725989 to convert to a.u.)

  No.       Tag          Charge          X              Y              Z
 ---- ---------------- ---------- -------------- -------------- --------------
    1 O                    8.0000    -0.09285512     0.00000000    -0.06764907
    2 H1                   1.0000    -0.09285512     0.00000000     0.90786093
    3 H2                   1.0000     0.83569604     0.00000000    -0.36666833

         Total SCF energy =    -76.055052872574

 Vector    2  Occ=2.000000D+00  E=-1.333991D+00

 Vector    3  Occ=2.000000D+00  E=-7.058812D-01

 Vector    4  Occ=2.000000D+00  E=-5.677040D-01

 Vector    5  Occ=2.000000D+00  E=-5.018590D-01

 Vector    6  Occ=0.000000D+00  E= 1.407844D-01

 Vector    7  Occ=0.000000D+00  E= 2.017029D-01

 Vector    8  Occ=0.000000D+00  E= 5.426554D-01

 Vector    9  Occ=0.000000D+00  E= 5.791507D-01

 Vector   10  Occ=0.000000D+00  E= 6.748180D-01

 Vector   11  Occ=0.000000D+00  E= 7.878325D-01

 Vector   12  Occ=0.000000D+00  E= 8.029103D-01

 Vector   13  Occ=0.000000D+00  E= 8.159532D-01

 Vector   14  Occ=0.000000D+00  E= 8.503486D-01

 Vector   15  Occ=0.000000D+00  E= 9.672876D-01

       Multipole analysis of the density wrt the origin
       ------------------------------------------------

     L   x y z        total         open         nuclear
     -   - - -        -----         ----         -------
     0   0 0 0      0.000000      0.000000     10.000000

     1   1 0 0      0.631153      0.000000      0.000000
     1   0 1 0     -0.000000      0.000000      0.000000
     1   0 0 1      0.459823      0.000000      0.000000

     2   2 0 0     -4.013698      0.000000      2.771098
     2   1 1 0     -0.000000      0.000000      0.000000
     2   1 0 1     -0.777162      0.000000     -1.215841
     2   0 2 0     -5.456443      0.000000      0.000000
     2   0 1 1     -0.000000      0.000000      0.000000

 CCSD total energy / hartree       =       -76.063631313662640
 Total times  cpu:       22.5s     wall:       31.4s
