============================== echo of input deck ==============================
 echo
 start H2O
 title "H2O"

 memory total 24 gb

 geometry units angstrom
 symmetry c1
   zmatrix
     O
     H1 O 0.97551
     H2 O 0.97551 H1 107.95
   end
 end

 basis spherical
   * library cc-pVTZ
 end

 tce
   2eorb
   2emet 13
   ccsd
   maxiter 300
 end

set tce:print_integrals T
set tce:qorb 8
set tce:qela 5
set tce:qelb 5

# set tce:qducc T
# set tce:nactv 3
# set tce:nonhf T
# set tce:ducc_model 6

 set tce:printtol 0.02

 task tce
================================================================================

 Output coordinates in angstroms (scale by  1.889725989 to convert to a.u.)

  No.       Tag          Charge          X              Y              Z
 ---- ---------------- ---------- -------------- -------------- --------------
    1 O                    8.0000    -0.09280279     0.00000000    -0.06748706
    2 H1                   1.0000    -0.09280279     0.00000000     0.90802294
    3 H2                   1.0000     0.83522507     0.00000000    -0.36812648

         Total SCF energy =    -76.055036646356

 Vector    2  Occ=2.000000D+00  E=-1.333920D+00

 Vector    3  Occ=2.000000D+00  E=-7.060557D-01

 Vector    4  Occ=2.000000D+00  E=-5.675088D-01

 Vector    5  Occ=2.000000D+00  E=-5.018231D-01

 Vector    6  Occ=0.000000D+00  E= 1.407964D-01

 Vector    7  Occ=0.000000D+00  E= 2.016841D-01

 Vector    8  Occ=0.000000D+00  E= 5.428433D-01

 Vector    9  Occ=0.000000D+00  E= 5.787795D-01

 Vector   10  Occ=0.000000D+00  E= 6.749209D-01

 Vector   11  Occ=0.000000D+00  E= 7.878543D-01

 Vector   12  Occ=0.000000D+00  E= 8.028424D-01

 Vector   13  Occ=0.000000D+00  E= 8.165363D-01

 Vector   14  Occ=0.000000D+00  E= 8.501451D-01

 Vector   15  Occ=0.000000D+00  E= 9.677062D-01

       Multipole analysis of the density wrt the origin
       ------------------------------------------------

     L   x y z        total         open         nuclear
     -   - - -        -----         ----         -------
     0   0 0 0     -0.000000      0.000000     10.000000

     1   1 0 0      0.631022      0.000000     -0.000000
     1   0 1 0      0.000000      0.000000      0.000000
     1   0 0 1      0.458885      0.000000      0.000000

     2   2 0 0     -4.015296      0.000000      2.767975
     2   1 1 0      0.000000      0.000000      0.000000
     2   1 0 1     -0.779370      0.000000     -1.219989
     2   0 2 0     -5.456535      0.000000      0.000000
     2   0 1 1      0.000000      0.000000      0.000000

 CCSD total energy / hartree       =       -76.063608193012115
 Total times  cpu:       22.6s     wall:       31.3s
