============================== echo of input deck ==============================
 echo
 start H2O
 title "H2O"

 memory total 24 gb

 geometry units angstrom
 symmetry c1
   zmatrix
     O
     H1 O 0.97551
     H2 O 0.97551 H1 108.60
   end
 end

 basis spherical
   * library cc-pVTZ
 end

 tce
   2eorb
   2emet 13
   ccsd
   maxiter 300
 end

set tce:print_integrals T
set tce:qorb 8
set tce:qela 5
set tce:qelb 5

# set tce:qducc T
# set tce:nactv 3
# set tce:nonhf T
# set tce:ducc_model 6

 set tce:printtol 0.02

 task tce
================================================================================

 Output coordinates in angstroms (scale by  1.889725989 to convert to a.u.)

  No.       Tag          Charge          X              Y              Z
 ---- ---------------- ---------- -------------- -------------- --------------
    1 O                    8.0000    -0.09245576     0.00000000    -0.06643620
    2 H1                   1.0000    -0.09245576     0.00000000     0.90907380
    3 H2                   1.0000     0.83210181     0.00000000    -0.37758420

         Total SCF energy =    -76.054919033609

 Vector    2  Occ=2.000000D+00  E=-1.333454D+00

 Vector    3  Occ=2.000000D+00  E=-7.071829D-01

 Vector    4  Occ=2.000000D+00  E=-5.662412D-01

 Vector    5  Occ=2.000000D+00  E=-5.015893D-01

 Vector    6  Occ=0.000000D+00  E= 1.408713D-01

 Vector    7  Occ=0.000000D+00  E= 2.015617D-01

 Vector    8  Occ=0.000000D+00  E= 5.440762D-01

 Vector    9  Occ=0.000000D+00  E= 5.763627D-01

 Vector   10  Occ=0.000000D+00  E= 6.756094D-01

 Vector   11  Occ=0.000000D+00  E= 7.879961D-01

 Vector   12  Occ=0.000000D+00  E= 8.023966D-01

 Vector   13  Occ=0.000000D+00  E= 8.203692D-01

 Vector   14  Occ=0.000000D+00  E= 8.488282D-01

 Vector   15  Occ=0.000000D+00  E= 9.704281D-01

       Multipole analysis of the density wrt the origin
       ------------------------------------------------

     L   x y z        total         open         nuclear
     -   - - -        -----         ----         -------
     0   0 0 0     -0.000000      0.000000     10.000000

     1   1 0 0      0.630130      0.000000     -0.000000
     1   0 1 0     -0.000000      0.000000      0.000000
     1   0 0 1      0.452795      0.000000      0.000000

     2   2 0 0     -4.025878      0.000000      2.747313
     2   1 1 0     -0.000000      0.000000      0.000000
     2   1 0 1     -0.793570      0.000000     -1.246653
     2   0 2 0     -5.457142      0.000000      0.000000
     2   0 1 1     -0.000000      0.000000      0.000000

 CCSD total energy / hartree       =       -76.063445819002141
 Total times  cpu:       22.3s     wall:       30.9s
