============================== echo of input deck ==============================
 echo
 start H2O
 title "H2O"

 memory total 24 gb

 geometry units angstrom
 symmetry c1
   zmatrix
     O
     H1 O 0.97551
     H2 O 0.97551 H1 108.55
   end
 end

 basis spherical
   * library cc-pVTZ
 end

 tce
   2eorb
   2emet 13
   ccsd
   maxiter 300
 end

set tce:print_integrals T
set tce:qorb 8
set tce:qela 5
set tce:qelb 5

# set tce:qducc T
# set tce:nactv 3
# set tce:nonhf T
# set tce:ducc_model 6

 set tce:printtol 0.02

 task tce
================================================================================

 Output coordinates in angstroms (scale by  1.889725989 to convert to a.u.)

  No.       Tag          Charge          X              Y              Z
 ---- ---------------- ---------- -------------- -------------- --------------
    1 O                    8.0000    -0.09248287     0.00000000    -0.06651690
    2 H1                   1.0000    -0.09248287     0.00000000     0.90899310
    3 H2                   1.0000     0.83234586     0.00000000    -0.37685794

         Total SCF energy =    -76.054928824814

 Vector    2  Occ=2.000000D+00  E=-1.333490D+00

 Vector    3  Occ=2.000000D+00  E=-7.070966D-01

 Vector    4  Occ=2.000000D+00  E=-5.663386D-01

 Vector    5  Occ=2.000000D+00  E=-5.016074D-01

 Vector    6  Occ=0.000000D+00  E= 1.408657D-01

 Vector    7  Occ=0.000000D+00  E= 2.015711D-01

 Vector    8  Occ=0.000000D+00  E= 5.439807D-01

 Vector    9  Occ=0.000000D+00  E= 5.765488D-01

 Vector   10  Occ=0.000000D+00  E= 6.755552D-01

 Vector   11  Occ=0.000000D+00  E= 7.879852D-01

 Vector   12  Occ=0.000000D+00  E= 8.024312D-01

 Vector   13  Occ=0.000000D+00  E= 8.200718D-01

 Vector   14  Occ=0.000000D+00  E= 8.489291D-01

 Vector   15  Occ=0.000000D+00  E= 9.702187D-01

       Multipole analysis of the density wrt the origin
       ------------------------------------------------

     L   x y z        total         open         nuclear
     -   - - -        -----         ----         -------
     0   0 0 0     -0.000000      0.000000     10.000000

     1   1 0 0      0.630202      0.000000     -0.000000
     1   0 1 0      0.000000      0.000000      0.000000
     1   0 0 1      0.453263      0.000000     -0.000000

     2   2 0 0     -4.025052      0.000000      2.748925
     2   1 1 0      0.000000      0.000000      0.000000
     2   1 0 1     -0.792487      0.000000     -1.244620
     2   0 2 0     -5.457095      0.000000      0.000000
     2   0 1 1      0.000000      0.000000      0.000000

 CCSD total energy / hartree       =       -76.063459050048479
 Total times  cpu:       22.4s     wall:       30.9s
