============================== echo of input deck ==============================
 echo
 start H2O
 title "H2O"

 memory total 24 gb

 geometry units angstrom
 symmetry c1
   zmatrix
     O
     H1 O 0.97551
     H2 O 0.97551 H1 108.05
   end
 end

 basis spherical
   * library cc-pVTZ
 end

 tce
   2eorb
   2emet 13
   ccsd
   maxiter 300
 end

set tce:print_integrals T
set tce:qorb 8
set tce:qela 5
set tce:qelb 5

# set tce:qducc T
# set tce:nactv 3
# set tce:nonhf T
# set tce:ducc_model 6

 set tce:printtol 0.02

 task tce
================================================================================

 Output coordinates in angstroms (scale by  1.889725989 to convert to a.u.)

  No.       Tag          Charge          X              Y              Z
 ---- ---------------- ---------- -------------- -------------- --------------
    1 O                    8.0000    -0.09275017     0.00000000    -0.06732513
    2 H1                   1.0000    -0.09275017     0.00000000     0.90818487
    3 H2                   1.0000     0.83475155     0.00000000    -0.36958381

         Total SCF energy =    -76.055019920336

 Vector    2  Occ=2.000000D+00  E=-1.333848D+00

 Vector    3  Occ=2.000000D+00  E=-7.062299D-01

 Vector    4  Occ=2.000000D+00  E=-5.673136D-01

 Vector    5  Occ=2.000000D+00  E=-5.017873D-01

 Vector    6  Occ=0.000000D+00  E= 1.408083D-01

 Vector    7  Occ=0.000000D+00  E= 2.016652D-01

 Vector    8  Occ=0.000000D+00  E= 5.430318D-01

 Vector    9  Occ=0.000000D+00  E= 5.784081D-01

 Vector   10  Occ=0.000000D+00  E= 6.750246D-01

 Vector   11  Occ=0.000000D+00  E= 7.878761D-01

 Vector   12  Occ=0.000000D+00  E= 8.027744D-01

 Vector   13  Occ=0.000000D+00  E= 8.171211D-01

 Vector   14  Occ=0.000000D+00  E= 8.499418D-01

 Vector   15  Occ=0.000000D+00  E= 9.681249D-01

       Multipole analysis of the density wrt the origin
       ------------------------------------------------

     L   x y z        total         open         nuclear
     -   - - -        -----         ----         -------
     0   0 0 0     -0.000000      0.000000     10.000000

     1   1 0 0      0.630890      0.000000      0.000000
     1   0 1 0      0.000000      0.000000      0.000000
     1   0 0 1      0.457948      0.000000      0.000000

     2   2 0 0     -4.016902      0.000000      2.764838
     2   1 1 0      0.000000      0.000000      0.000000
     2   1 0 1     -0.781571      0.000000     -1.224124
     2   0 2 0     -5.456628      0.000000      0.000000
     2   0 1 1     -0.000000      0.000000      0.000000

 CCSD total energy / hartree       =       -76.063584574694673
 Total times  cpu:       22.5s     wall:       31.2s
