============================== echo of input deck ==============================
 echo
 start H2O
 title "H2O"

 memory total 24 gb

 geometry units angstrom
 symmetry c1
   zmatrix
     O
     H1 O 0.97551
     H2 O 0.97551 H1 108.90
   end
 end

 basis spherical
   * library cc-pVTZ
 end

 tce
   2eorb
   2emet 13
   ccsd
   maxiter 300
 end

set tce:print_integrals T
set tce:qorb 8
set tce:qela 5
set tce:qelb 5

# set tce:qducc T
# set tce:nactv 3
# set tce:nonhf T
# set tce:ducc_model 6

 set tce:printtol 0.02

 task tce
================================================================================

 Output coordinates in angstroms (scale by  1.889725989 to convert to a.u.)

  No.       Tag          Charge          X              Y              Z
 ---- ---------------- ---------- -------------- -------------- --------------
    1 O                    8.0000    -0.09229157     0.00000000    -0.06595253
    2 H1                   1.0000    -0.09229157     0.00000000     0.90955747
    3 H2                   1.0000     0.83062416     0.00000000    -0.38193721

         Total SCF energy =    -76.054857697899

 Vector    2  Occ=2.000000D+00  E=-1.333239D+00

 Vector    3  Occ=2.000000D+00  E=-7.076992D-01

 Vector    4  Occ=2.000000D+00  E=-5.656570D-01

 Vector    5  Occ=2.000000D+00  E=-5.014809D-01

 Vector    6  Occ=0.000000D+00  E= 1.409040D-01

 Vector    7  Occ=0.000000D+00  E= 2.015053D-01

 Vector    8  Occ=0.000000D+00  E= 5.446517D-01

 Vector    9  Occ=0.000000D+00  E= 5.752455D-01

 Vector   10  Occ=0.000000D+00  E= 6.759389D-01

 Vector   11  Occ=0.000000D+00  E= 7.880616D-01

 Vector   12  Occ=0.000000D+00  E= 8.021879D-01

 Vector   13  Occ=0.000000D+00  E= 8.221627D-01

 Vector   14  Occ=0.000000D+00  E= 8.482239D-01

 Vector   15  Occ=0.000000D+00  E= 9.716847D-01

       Multipole analysis of the density wrt the origin
       ------------------------------------------------

     L   x y z        total         open         nuclear
     -   - - -        -----         ----         -------
     0   0 0 0     -0.000000      0.000000     10.000000

     1   1 0 0      0.629694      0.000000      0.000000
     1   0 1 0     -0.000000      0.000000      0.000000
     1   0 0 1      0.449986      0.000000      0.000000

     2   2 0 0     -4.030876      0.000000      2.737564
     2   1 1 0     -0.000000      0.000000      0.000000
     2   1 0 1     -0.800035      0.000000     -1.258785
     2   0 2 0     -5.457425      0.000000      0.000000
     2   0 1 1     -0.000000      0.000000      0.000000

 CCSD total energy / hartree       =       -76.063363856433497
 Total times  cpu:       22.3s     wall:       30.8s
