============================== echo of input deck ==============================
 echo
 start H2O
 title "H2O"

 memory total 24 gb

 geometry units angstrom
 symmetry c1
   zmatrix
     O
     H1 O 0.97551
     H2 O 0.97551 H1 108.20
   end
 end

 basis spherical
   * library cc-pVTZ
 end

 tce
   2eorb
   2emet 13
   ccsd
   maxiter 300
 end

set tce:print_integrals T
set tce:qorb 8
set tce:qela 5
set tce:qelb 5

# set tce:qducc T
# set tce:nactv 3
# set tce:nonhf T
# set tce:ducc_model 6

 set tce:printtol 0.02

 task tce
================================================================================

 Output coordinates in angstroms (scale by  1.889725989 to convert to a.u.)

  No.       Tag          Charge          X              Y              Z
 ---- ---------------- ---------- -------------- -------------- --------------
    1 O                    8.0000    -0.09267072     0.00000000    -0.06708242
    2 H1                   1.0000    -0.09267072     0.00000000     0.90842758
    3 H2                   1.0000     0.83403651     0.00000000    -0.37176825

         Total SCF energy =    -76.054993896113

 Vector    2  Occ=2.000000D+00  E=-1.333740D+00

 Vector    3  Occ=2.000000D+00  E=-7.064906D-01

 Vector    4  Occ=2.000000D+00  E=-5.670210D-01

 Vector    5  Occ=2.000000D+00  E=-5.017334D-01

 Vector    6  Occ=0.000000D+00  E= 1.408258D-01

 Vector    7  Occ=0.000000D+00  E= 2.016370D-01

 Vector    8  Occ=0.000000D+00  E= 5.433152D-01

 Vector    9  Occ=0.000000D+00  E= 5.778507D-01

 Vector   10  Occ=0.000000D+00  E= 6.751816D-01

 Vector   11  Occ=0.000000D+00  E= 7.879088D-01

 Vector   12  Occ=0.000000D+00  E= 8.026719D-01

 Vector   13  Occ=0.000000D+00  E= 8.180018D-01

 Vector   14  Occ=0.000000D+00  E= 8.496374D-01

 Vector   15  Occ=0.000000D+00  E= 9.687529D-01

       Multipole analysis of the density wrt the origin
       ------------------------------------------------

     L   x y z        total         open         nuclear
     -   - - -        -----         ----         -------
     0   0 0 0     -0.000000      0.000000     10.000000

     1   1 0 0      0.630688      0.000000      0.000000
     1   0 1 0      0.000000      0.000000      0.000000
     1   0 0 1      0.456542      0.000000      0.000000

     2   2 0 0     -4.019326      0.000000      2.760103
     2   1 1 0      0.000000      0.000000      0.000000
     2   1 0 1     -0.784862      0.000000     -1.230304
     2   0 2 0     -5.456767      0.000000      0.000000
     2   0 1 1      0.000000      0.000000      0.000000

 CCSD total energy / hartree       =       -76.063548215982593
 Total times  cpu:       22.0s     wall:       31.3s
