============================== echo of input deck ==============================
 echo
 start H2O
 title "H2O"

 memory total 24 gb

 geometry units angstrom
 symmetry c1
   zmatrix
     O
     H1 O 0.97551
     H2 O 0.97551 H1 108.25
   end
 end

 basis spherical
   * library cc-pVTZ
 end

 tce
   2eorb
   2emet 13
   ccsd
   maxiter 300
 end

set tce:print_integrals T
set tce:qorb 8
set tce:qela 5
set tce:qelb 5

# set tce:qducc T
# set tce:nactv 3
# set tce:nonhf T
# set tce:ducc_model 6

 set tce:printtol 0.02

 task tce
================================================================================

 Output coordinates in angstroms (scale by  1.889725989 to convert to a.u.)

  No.       Tag          Charge          X              Y              Z
 ---- ---------------- ---------- -------------- -------------- --------------
    1 O                    8.0000    -0.09264410     0.00000000    -0.06700156
    2 H1                   1.0000    -0.09264410     0.00000000     0.90850844
    3 H2                   1.0000     0.83379690     0.00000000    -0.37249598

         Total SCF energy =    -76.054984972414

 Vector    2  Occ=2.000000D+00  E=-1.333704D+00

 Vector    3  Occ=2.000000D+00  E=-7.065774D-01

 Vector    4  Occ=2.000000D+00  E=-5.669234D-01

 Vector    5  Occ=2.000000D+00  E=-5.017154D-01

 Vector    6  Occ=0.000000D+00  E= 1.408316D-01

 Vector    7  Occ=0.000000D+00  E= 2.016276D-01

 Vector    8  Occ=0.000000D+00  E= 5.434100D-01

 Vector    9  Occ=0.000000D+00  E= 5.776648D-01

 Vector   10  Occ=0.000000D+00  E= 6.752344D-01

 Vector   11  Occ=0.000000D+00  E= 7.879198D-01

 Vector   12  Occ=0.000000D+00  E= 8.026377D-01

 Vector   13  Occ=0.000000D+00  E= 8.182962D-01

 Vector   14  Occ=0.000000D+00  E= 8.495360D-01

 Vector   15  Occ=0.000000D+00  E= 9.689623D-01

       Multipole analysis of the density wrt the origin
       ------------------------------------------------

     L   x y z        total         open         nuclear
     -   - - -        -----         ----         -------
     0   0 0 0     -0.000000      0.000000     10.000000

     1   1 0 0      0.630620      0.000000      0.000000
     1   0 1 0     -0.000000      0.000000      0.000000
     1   0 0 1      0.456073      0.000000     -0.000000

     2   2 0 0     -4.020138      0.000000      2.758517
     2   1 1 0     -0.000000      0.000000      0.000000
     2   1 0 1     -0.785956      0.000000     -1.232358
     2   0 2 0     -5.456814      0.000000      0.000000
     2   0 1 1     -0.000000      0.000000      0.000000

 CCSD total energy / hartree       =       -76.063535848533263
 Total times  cpu:       22.5s     wall:       31.2s
