============================== echo of input deck ==============================
 echo
 start H2O
 title "H2O"

 memory total 24 gb

 geometry units angstrom
 symmetry c1
   zmatrix
     O
     H1 O 0.97551
     H2 O 0.97551 H1 108.85
   end
 end

 basis spherical
   * library cc-pVTZ
 end

 tce
   2eorb
   2emet 13
   ccsd
   maxiter 300
 end

set tce:print_integrals T
set tce:qorb 8
set tce:qela 5
set tce:qelb 5

# set tce:qducc T
# set tce:nactv 3
# set tce:nonhf T
# set tce:ducc_model 6

 set tce:printtol 0.02

 task tce
================================================================================

 Output coordinates in angstroms (scale by  1.889725989 to convert to a.u.)

  No.       Tag          Charge          X              Y              Z
 ---- ---------------- ---------- -------------- -------------- --------------
    1 O                    8.0000    -0.09231911     0.00000000    -0.06603308
    2 H1                   1.0000    -0.09231911     0.00000000     0.90947692
    3 H2                   1.0000     0.83087201     0.00000000    -0.38121225

         Total SCF energy =    -76.054868228144

 Vector    2  Occ=2.000000D+00  E=-1.333275D+00

 Vector    3  Occ=2.000000D+00  E=-7.076133D-01

 Vector    4  Occ=2.000000D+00  E=-5.657543D-01

 Vector    5  Occ=2.000000D+00  E=-5.014990D-01

 Vector    6  Occ=0.000000D+00  E= 1.408986D-01

 Vector    7  Occ=0.000000D+00  E= 2.015147D-01

 Vector    8  Occ=0.000000D+00  E= 5.445555D-01

 Vector    9  Occ=0.000000D+00  E= 5.754318D-01

 Vector   10  Occ=0.000000D+00  E= 6.758834D-01

 Vector   11  Occ=0.000000D+00  E= 7.880507D-01

 Vector   12  Occ=0.000000D+00  E= 8.022228D-01

 Vector   13  Occ=0.000000D+00  E= 8.218627D-01

 Vector   14  Occ=0.000000D+00  E= 8.483245D-01

 Vector   15  Occ=0.000000D+00  E= 9.714752D-01

       Multipole analysis of the density wrt the origin
       ------------------------------------------------

     L   x y z        total         open         nuclear
     -   - - -        -----         ----         -------
     0   0 0 0     -0.000000      0.000000     10.000000

     1   1 0 0      0.629767      0.000000      0.000000
     1   0 1 0      0.000000      0.000000      0.000000
     1   0 0 1      0.450454      0.000000      0.000000

     2   2 0 0     -4.030038      0.000000      2.739198
     2   1 1 0      0.000000      0.000000      0.000000
     2   1 0 1     -0.798962      0.000000     -1.256771
     2   0 2 0     -5.457378      0.000000      0.000000
     2   0 1 1      0.000000      0.000000      0.000000

 CCSD total energy / hartree       =       -76.063377823017944
 Total times  cpu:       22.0s     wall:       30.7s
