============================== echo of input deck ==============================
 echo
 start H2O
 title "H2O"

 memory total 24 gb

 geometry units angstrom
 symmetry c1
   zmatrix
     O
     H1 O 0.97551
     H2 O 0.97551 H1 108.00
   end
 end

 basis spherical
   * library cc-pVTZ
 end

 tce
   2eorb
   2emet 13
   ccsd
   maxiter 300
 end

set tce:print_integrals T
set tce:qorb 8
set tce:qela 5
set tce:qelb 5

# set tce:qducc T
# set tce:nactv 3
# set tce:nonhf T
# set tce:ducc_model 6

 set tce:printtol 0.02

 task tce
================================================================================

 Output coordinates in angstroms (scale by  1.889725989 to convert to a.u.)

  No.       Tag          Charge          X              Y              Z
 ---- ---------------- ---------- -------------- -------------- --------------
    1 O                    8.0000    -0.09277651     0.00000000    -0.06740608
    2 H1                   1.0000    -0.09277651     0.00000000     0.90810392
    3 H2                   1.0000     0.83498863     0.00000000    -0.36885525

         Total SCF energy =    -76.055028345775

 Vector    2  Occ=2.000000D+00  E=-1.333884D+00

 Vector    3  Occ=2.000000D+00  E=-7.061428D-01

 Vector    4  Occ=2.000000D+00  E=-5.674112D-01

 Vector    5  Occ=2.000000D+00  E=-5.018052D-01

 Vector    6  Occ=0.000000D+00  E= 1.408024D-01

 Vector    7  Occ=0.000000D+00  E= 2.016747D-01

 Vector    8  Occ=0.000000D+00  E= 5.429375D-01

 Vector    9  Occ=0.000000D+00  E= 5.785938D-01

 Vector   10  Occ=0.000000D+00  E= 6.749726D-01

 Vector   11  Occ=0.000000D+00  E= 7.878652D-01

 Vector   12  Occ=0.000000D+00  E= 8.028084D-01

 Vector   13  Occ=0.000000D+00  E= 8.168285D-01

 Vector   14  Occ=0.000000D+00  E= 8.500434D-01

 Vector   15  Occ=0.000000D+00  E= 9.679156D-01

       Multipole analysis of the density wrt the origin
       ------------------------------------------------

     L   x y z        total         open         nuclear
     -   - - -        -----         ----         -------
     0   0 0 0     -0.000000      0.000000     10.000000

     1   1 0 0      0.630956      0.000000     -0.000000
     1   0 1 0      0.000000      0.000000      0.000000
     1   0 0 1      0.458416      0.000000      0.000000

     2   2 0 0     -4.016098      0.000000      2.766408
     2   1 1 0      0.000000      0.000000      0.000000
     2   1 0 1     -0.780471      0.000000     -1.222058
     2   0 2 0     -5.456582      0.000000      0.000000
     2   0 1 1     -0.000000      0.000000      0.000000

 CCSD total energy / hartree       =       -76.063596446029663
 Total times  cpu:       22.7s     wall:       31.8s
