============================== echo of input deck ==============================
 echo
 start H2O
 title "H2O"

 memory total 24 gb

 geometry units angstrom
 symmetry c1
   zmatrix
     O
     H1 O 0.97551
     H2 O 0.97551 H1 109.30
   end
 end

 basis spherical
   * library cc-pVTZ
 end

 tce
   2eorb
   2emet 13
   ccsd
   maxiter 300
 end

set tce:print_integrals T
set tce:qorb 8
set tce:qela 5
set tce:qelb 5

# set tce:qducc T
# set tce:nactv 3
# set tce:nonhf T
# set tce:ducc_model 6

 set tce:printtol 0.02

 task tce
================================================================================

 Output coordinates in angstroms (scale by  1.889725989 to convert to a.u.)

  No.       Tag          Charge          X              Y              Z
 ---- ---------------- ---------- -------------- -------------- --------------
    1 O                    8.0000    -0.09206873     0.00000000    -0.06530899
    2 H1                   1.0000    -0.09206873     0.00000000     0.91020101
    3 H2                   1.0000     0.82861854     0.00000000    -0.38772909

         Total SCF energy =    -76.054769045720

 Vector    2  Occ=2.000000D+00  E=-1.332954D+00

 Vector    3  Occ=2.000000D+00  E=-7.083836D-01

 Vector    4  Occ=2.000000D+00  E=-5.648789D-01

 Vector    5  Occ=2.000000D+00  E=-5.013358D-01

 Vector    6  Occ=0.000000D+00  E= 1.409458D-01

 Vector    7  Occ=0.000000D+00  E= 2.014301D-01

 Vector    8  Occ=0.000000D+00  E= 5.454254D-01

 Vector    9  Occ=0.000000D+00  E= 5.737547D-01

 Vector   10  Occ=0.000000D+00  E= 6.763898D-01

 Vector   11  Occ=0.000000D+00  E= 7.881489D-01

 Vector   12  Occ=0.000000D+00  E= 8.019067D-01

 Vector   13  Occ=0.000000D+00  E= 8.245770D-01

 Vector   14  Occ=0.000000D+00  E= 8.474217D-01

 Vector   15  Occ=0.000000D+00  E= 9.733603D-01

       Multipole analysis of the density wrt the origin
       ------------------------------------------------

     L   x y z        total         open         nuclear
     -   - - -        -----         ----         -------
     0   0 0 0     -0.000000      0.000000     10.000000

     1   1 0 0      0.629086      0.000000      0.000000
     1   0 1 0      0.000000      0.000000      0.000000
     1   0 0 1      0.446243      0.000000      0.000000

     2   2 0 0     -4.037651      0.000000      2.724360
     2   1 1 0      0.000000      0.000000      0.000000
     2   1 0 1     -0.808566      0.000000     -1.274789
     2   0 2 0     -5.457806      0.000000      0.000000
     2   0 1 1     -0.000000      0.000000      0.000000

 CCSD total energy / hartree       =       -76.063247735369274
 Total times  cpu:       22.9s     wall:       31.0s
