============================== echo of input deck ==============================
 echo
 start H2O
 title "H2O"

 memory total 24 gb

 geometry units angstrom
 symmetry c1
   zmatrix
     O
     H1 O 0.97551
     H2 O 0.97551 H1 109.55
   end
 end

 basis spherical
   * library cc-pVTZ
 end

 tce
   2eorb
   2emet 13
   ccsd
   maxiter 300
 end

set tce:print_integrals T
set tce:qorb 8
set tce:qela 5
set tce:qelb 5

# set tce:qducc T
# set tce:nactv 3
# set tce:nonhf T
# set tce:ducc_model 6

 set tce:printtol 0.02

 task tce
================================================================================

 Output coordinates in angstroms (scale by  1.889725989 to convert to a.u.)

  No.       Tag          Charge          X              Y              Z
 ---- ---------------- ---------- -------------- -------------- --------------
    1 O                    8.0000    -0.09192717     0.00000000    -0.06490757
    2 H1                   1.0000    -0.09192717     0.00000000     0.91060243
    3 H2                   1.0000     0.82734452     0.00000000    -0.39134184

         Total SCF energy =    -76.054709674329

 Vector    2  Occ=2.000000D+00  E=-1.332776D+00

 Vector    3  Occ=2.000000D+00  E=-7.088091D-01

 Vector    4  Occ=2.000000D+00  E=-5.643931D-01

 Vector    5  Occ=2.000000D+00  E=-5.012448D-01

 Vector    6  Occ=0.000000D+00  E= 1.409709D-01

 Vector    7  Occ=0.000000D+00  E= 2.013831D-01

 Vector    8  Occ=0.000000D+00  E= 5.459126D-01

 Vector    9  Occ=0.000000D+00  E= 5.728225D-01

 Vector   10  Occ=0.000000D+00  E= 6.766785D-01

 Vector   11  Occ=0.000000D+00  E= 7.882035D-01

 Vector   12  Occ=0.000000D+00  E= 8.017293D-01

 Vector   13  Occ=0.000000D+00  E= 8.260990D-01

 Vector   14  Occ=0.000000D+00  E= 8.469223D-01

 Vector   15  Occ=0.000000D+00  E= 9.744076D-01

       Multipole analysis of the density wrt the origin
       ------------------------------------------------

     L   x y z        total         open         nuclear
     -   - - -        -----         ----         -------
     0   0 0 0      0.000000      0.000000     10.000000

     1   1 0 0      0.628692      0.000000      0.000000
     1   0 1 0     -0.000000      0.000000      0.000000
     1   0 0 1      0.443904      0.000000      0.000000

     2   2 0 0     -4.041950      0.000000      2.715989
     2   1 1 0      0.000000      0.000000      0.000000
     2   1 0 1     -0.813846      0.000000     -1.284689
     2   0 2 0     -5.458046      0.000000      0.000000
     2   0 1 1     -0.000000      0.000000      0.000000

 CCSD total energy / hartree       =       -76.063171216214130
 Total times  cpu:       22.7s     wall:       31.4s
