============================== echo of input deck ==============================
 echo
 start H2O
 title "H2O"

 memory total 24 gb

 geometry units angstrom
 symmetry c1
   zmatrix
     O
     H1 O 0.97551
     H2 O 0.97551 H1 109.00
   end
 end

 basis spherical
   * library cc-pVTZ
 end

 tce
   2eorb
   2emet 13
   ccsd
   maxiter 300
 end

set tce:print_integrals T
set tce:qorb 8
set tce:qela 5
set tce:qelb 5

# set tce:qducc T
# set tce:nactv 3
# set tce:nonhf T
# set tce:ducc_model 6

 set tce:printtol 0.02

 task tce
================================================================================

 Output coordinates in angstroms (scale by  1.889725989 to convert to a.u.)

  No.       Tag          Charge          X              Y              Z
 ---- ---------------- ---------- -------------- -------------- --------------
    1 O                    8.0000    -0.09223628     0.00000000    -0.06579150
    2 H1                   1.0000    -0.09223628     0.00000000     0.90971850
    3 H2                   1.0000     0.83012654     0.00000000    -0.38338649

         Total SCF energy =    -76.054836269201

 Vector    2  Occ=2.000000D+00  E=-1.333168D+00

 Vector    3  Occ=2.000000D+00  E=-7.078707D-01

 Vector    4  Occ=2.000000D+00  E=-5.654624D-01

 Vector    5  Occ=2.000000D+00  E=-5.014446D-01

 Vector    6  Occ=0.000000D+00  E= 1.409146D-01

 Vector    7  Occ=0.000000D+00  E= 2.014865D-01

 Vector    8  Occ=0.000000D+00  E= 5.448445D-01

 Vector    9  Occ=0.000000D+00  E= 5.748729D-01

 Vector   10  Occ=0.000000D+00  E= 6.760503D-01

 Vector   11  Occ=0.000000D+00  E= 7.880834D-01

 Vector   12  Occ=0.000000D+00  E= 8.021179D-01

 Vector   13  Occ=0.000000D+00  E= 8.227638D-01

 Vector   14  Occ=0.000000D+00  E= 8.480230D-01

 Vector   15  Occ=0.000000D+00  E= 9.721036D-01

       Multipole analysis of the density wrt the origin
       ------------------------------------------------

     L   x y z        total         open         nuclear
     -   - - -        -----         ----         -------
     0   0 0 0     -0.000000      0.000000     10.000000

     1   1 0 0      0.629544      0.000000      0.000000
     1   0 1 0      0.000000      0.000000      0.000000
     1   0 0 1      0.449050      0.000000     -0.000000

     2   2 0 0     -4.032558      0.000000      2.734285
     2   1 1 0      0.000000      0.000000      0.000000
     2   1 0 1     -0.802178      0.000000     -1.262805
     2   0 2 0     -5.457520      0.000000      0.000000
     2   0 1 1      0.000000      0.000000      0.000000

 CCSD total energy / hartree       =       -76.063335556853687
 Total times  cpu:       22.1s     wall:       30.7s
