============================== echo of input deck ==============================
 echo
 start H2O
 title "H2O"

 memory total 24 gb

 geometry units angstrom
 symmetry c1
   zmatrix
     O
     H1 O 0.97551
     H2 O 0.97551 H1 109.60
   end
 end

 basis spherical
   * library cc-pVTZ
 end

 tce
   2eorb
   2emet 13
   ccsd
   maxiter 300
 end

set tce:print_integrals T
set tce:qorb 8
set tce:qela 5
set tce:qelb 5

# set tce:qducc T
# set tce:nactv 3
# set tce:nonhf T
# set tce:ducc_model 6

 set tce:printtol 0.02

 task tce
================================================================================

 Output coordinates in angstroms (scale by  1.889725989 to convert to a.u.)

  No.       Tag          Charge          X              Y              Z
 ---- ---------------- ---------- -------------- -------------- --------------
    1 O                    8.0000    -0.09189865     0.00000000    -0.06482736
    2 H1                   1.0000    -0.09189865     0.00000000     0.91068264
    3 H2                   1.0000     0.82708782     0.00000000    -0.39206372

         Total SCF energy =    -76.054697435799

 Vector    2  Occ=2.000000D+00  E=-1.332741D+00

 Vector    3  Occ=2.000000D+00  E=-7.088940D-01

 Vector    4  Occ=2.000000D+00  E=-5.642960D-01

 Vector    5  Occ=2.000000D+00  E=-5.012265D-01

 Vector    6  Occ=0.000000D+00  E= 1.409759D-01

 Vector    7  Occ=0.000000D+00  E= 2.013737D-01

 Vector    8  Occ=0.000000D+00  E= 5.460104D-01

 Vector    9  Occ=0.000000D+00  E= 5.726360D-01

 Vector   10  Occ=0.000000D+00  E= 6.767368D-01

 Vector   11  Occ=0.000000D+00  E= 7.882144D-01

 Vector   12  Occ=0.000000D+00  E= 8.016936D-01

 Vector   13  Occ=0.000000D+00  E= 8.264045D-01

 Vector   14  Occ=0.000000D+00  E= 8.468227D-01

 Vector   15  Occ=0.000000D+00  E= 9.746170D-01

       Multipole analysis of the density wrt the origin
       ------------------------------------------------

     L   x y z        total         open         nuclear
     -   - - -        -----         ----         -------
     0   0 0 0     -0.000000      0.000000     10.000000

     1   1 0 0      0.628612      0.000000      0.000000
     1   0 1 0      0.000000      0.000000      0.000000
     1   0 0 1      0.443437      0.000000      0.000000

     2   2 0 0     -4.042816      0.000000      2.714304
     2   1 1 0      0.000000      0.000000      0.000000
     2   1 0 1     -0.814897      0.000000     -1.286659
     2   0 2 0     -5.458095      0.000000      0.000000
     2   0 1 1      0.000000      0.000000      0.000000

 CCSD total energy / hartree       =       -76.063155550049075
 Total times  cpu:       22.6s     wall:       31.1s
