============================== echo of input deck ==============================
 echo
 start H2O
 title "H2O"

 memory total 24 gb

 geometry units angstrom
 symmetry c1
   zmatrix
     O
     H1 O 0.97551
     H2 O 0.97551 H1 109.05
   end
 end

 basis spherical
   * library cc-pVTZ
 end

 tce
   2eorb
   2emet 13
   ccsd
   maxiter 300
 end

set tce:print_integrals T
set tce:qorb 8
set tce:qela 5
set tce:qelb 5

# set tce:qducc T
# set tce:nactv 3
# set tce:nonhf T
# set tce:ducc_model 6

 set tce:printtol 0.02

 task tce
================================================================================

 Output coordinates in angstroms (scale by  1.889725989 to convert to a.u.)

  No.       Tag          Charge          X              Y              Z
 ---- ---------------- ---------- -------------- -------------- --------------
    1 O                    8.0000    -0.09220853     0.00000000    -0.06571102
    2 H1                   1.0000    -0.09220853     0.00000000     0.90979898
    3 H2                   1.0000     0.82987679     0.00000000    -0.38411080

         Total SCF energy =    -76.054825370963

 Vector    2  Occ=2.000000D+00  E=-1.333132D+00

 Vector    3  Occ=2.000000D+00  E=-7.079564D-01

 Vector    4  Occ=2.000000D+00  E=-5.653651D-01

 Vector    5  Occ=2.000000D+00  E=-5.014265D-01

 Vector    6  Occ=0.000000D+00  E= 1.409199D-01

 Vector    7  Occ=0.000000D+00  E= 2.014771D-01

 Vector    8  Occ=0.000000D+00  E= 5.449410D-01

 Vector    9  Occ=0.000000D+00  E= 5.746866D-01

 Vector   10  Occ=0.000000D+00  E= 6.761064D-01

 Vector   11  Occ=0.000000D+00  E= 7.880943D-01

 Vector   12  Occ=0.000000D+00  E= 8.020829D-01

 Vector   13  Occ=0.000000D+00  E= 8.230650D-01

 Vector   14  Occ=0.000000D+00  E= 8.479226D-01

 Vector   15  Occ=0.000000D+00  E= 9.723130D-01

       Multipole analysis of the density wrt the origin
       ------------------------------------------------

     L   x y z        total         open         nuclear
     -   - - -        -----         ----         -------
     0   0 0 0     -0.000000      0.000000     10.000000

     1   1 0 0      0.629469      0.000000      0.000000
     1   0 1 0      0.000000      0.000000      0.000000
     1   0 0 1      0.448582      0.000000     -0.000000

     2   2 0 0     -4.033402      0.000000      2.732640
     2   1 1 0      0.000000      0.000000      0.000000
     2   1 0 1     -0.803246      0.000000     -1.264810
     2   0 2 0     -5.457568      0.000000      0.000000
     2   0 1 1      0.000000      0.000000      0.000000

 CCSD total energy / hartree       =       -76.063321224079857
 Total times  cpu:       22.3s     wall:       30.8s
