============================== echo of input deck ==============================
 echo
 start H2O
 title "H2O"

 memory total 24 gb

 geometry units angstrom
 symmetry c1
   zmatrix
     O
     H1 O 0.97551
     H2 O 0.97551 H1 109.75
   end
 end

 basis spherical
   * library cc-pVTZ
 end

 tce
   2eorb
   2emet 13
   ccsd
   maxiter 300
 end

set tce:print_integrals T
set tce:qorb 8
set tce:qela 5
set tce:qelb 5

# set tce:qducc T
# set tce:nactv 3
# set tce:nonhf T
# set tce:ducc_model 6

 set tce:printtol 0.02

 task tce
================================================================================

 Output coordinates in angstroms (scale by  1.889725989 to convert to a.u.)

  No.       Tag          Charge          X              Y              Z
 ---- ---------------- ---------- -------------- -------------- --------------
    1 O                    8.0000    -0.09181266     0.00000000    -0.06458689
    2 H1                   1.0000    -0.09181266     0.00000000     0.91092311
    3 H2                   1.0000     0.82631395     0.00000000    -0.39422802

         Total SCF energy =    -76.054659993931

 Vector    2  Occ=2.000000D+00  E=-1.332634D+00

 Vector    3  Occ=2.000000D+00  E=-7.091482D-01

 Vector    4  Occ=2.000000D+00  E=-5.640047D-01

 Vector    5  Occ=2.000000D+00  E=-5.011718D-01

 Vector    6  Occ=0.000000D+00  E= 1.409905D-01

 Vector    7  Occ=0.000000D+00  E= 2.013455D-01

 Vector    8  Occ=0.000000D+00  E= 5.463044D-01

 Vector    9  Occ=0.000000D+00  E= 5.720765D-01

 Vector   10  Occ=0.000000D+00  E= 6.769132D-01

 Vector   11  Occ=0.000000D+00  E= 7.882472D-01

 Vector   12  Occ=0.000000D+00  E= 8.015863D-01

 Vector   13  Occ=0.000000D+00  E= 8.273235D-01

 Vector   14  Occ=0.000000D+00  E= 8.465240D-01

 Vector   15  Occ=0.000000D+00  E= 9.752454D-01

       Multipole analysis of the density wrt the origin
       ------------------------------------------------

     L   x y z        total         open         nuclear
     -   - - -        -----         ----         -------
     0   0 0 0      0.000000      0.000000     10.000000

     1   1 0 0      0.628368      0.000000     -0.000000
     1   0 1 0      0.000000      0.000000      0.000000
     1   0 0 1      0.442034      0.000000      0.000000

     2   2 0 0     -4.045424      0.000000      2.709227
     2   1 1 0     -0.000000      0.000000      0.000000
     2   1 0 1     -0.818040      0.000000     -1.292551
     2   0 2 0     -5.458240      0.000000      0.000000
     2   0 1 1      0.000000      0.000000      0.000000

 CCSD total energy / hartree       =       -76.063107829161680
 Total times  cpu:       22.8s     wall:       31.2s
