============================== echo of input deck ==============================
 echo
 start H2O
 title "H2O"

 memory total 24 gb

 geometry units angstrom
 symmetry c1
   zmatrix
     O
     H1 O 0.97551
     H2 O 0.97551 H1 109.65
   end
 end

 basis spherical
   * library cc-pVTZ
 end

 tce
   2eorb
   2emet 13
   ccsd
   maxiter 300
 end

set tce:print_integrals T
set tce:qorb 8
set tce:qela 5
set tce:qelb 5

# set tce:qducc T
# set tce:nactv 3
# set tce:nonhf T
# set tce:ducc_model 6

 set tce:printtol 0.02

 task tce
================================================================================

 Output coordinates in angstroms (scale by  1.889725989 to convert to a.u.)

  No.       Tag          Charge          X              Y              Z
 ---- ---------------- ---------- -------------- -------------- --------------
    1 O                    8.0000    -0.09187005     0.00000000    -0.06474718
    2 H1                   1.0000    -0.09187005     0.00000000     0.91076282
    3 H2                   1.0000     0.82683049     0.00000000    -0.39278538

         Total SCF energy =    -76.054685076135

 Vector    2  Occ=2.000000D+00  E=-1.332705D+00

 Vector    3  Occ=2.000000D+00  E=-7.089788D-01

 Vector    4  Occ=2.000000D+00  E=-5.641989D-01

 Vector    5  Occ=2.000000D+00  E=-5.012083D-01

 Vector    6  Occ=0.000000D+00  E= 1.409808D-01

 Vector    7  Occ=0.000000D+00  E= 2.013643D-01

 Vector    8  Occ=0.000000D+00  E= 5.461083D-01

 Vector    9  Occ=0.000000D+00  E= 5.724495D-01

 Vector   10  Occ=0.000000D+00  E= 6.767954D-01

 Vector   11  Occ=0.000000D+00  E= 7.882254D-01

 Vector   12  Occ=0.000000D+00  E= 8.016579D-01

 Vector   13  Occ=0.000000D+00  E= 8.267105D-01

 Vector   14  Occ=0.000000D+00  E= 8.467230D-01

 Vector   15  Occ=0.000000D+00  E= 9.748265D-01

       Multipole analysis of the density wrt the origin
       ------------------------------------------------

     L   x y z        total         open         nuclear
     -   - - -        -----         ----         -------
     0   0 0 0     -0.000000      0.000000     10.000000

     1   1 0 0      0.628531      0.000000     -0.000000
     1   0 1 0     -0.000000      0.000000      0.000000
     1   0 0 1      0.442969      0.000000      0.000000

     2   2 0 0     -4.043683      0.000000      2.712615
     2   1 1 0     -0.000000      0.000000      0.000000
     2   1 0 1     -0.815946      0.000000     -1.288626
     2   0 2 0     -5.458143      0.000000      0.000000
     2   0 1 1      0.000000      0.000000      0.000000

 CCSD total energy / hartree       =       -76.063139763408117
 Total times  cpu:       22.4s     wall:       31.2s
