============================== echo of input deck ==============================
 echo
 start H2O
 title "H2O"

 memory total 24 gb

 geometry units angstrom
 symmetry c1
   zmatrix
     O
     H1 O 0.97551
     H2 O 0.97551 H1 109.90
   end
 end

 basis spherical
   * library cc-pVTZ
 end

 tce
   2eorb
   2emet 13
   ccsd
   maxiter 300
 end

set tce:print_integrals T
set tce:qorb 8
set tce:qela 5
set tce:qelb 5

# set tce:qducc T
# set tce:nactv 3
# set tce:nonhf T
# set tce:ducc_model 6

 set tce:printtol 0.02

 task tce
================================================================================

 Output coordinates in angstroms (scale by  1.889725989 to convert to a.u.)

  No.       Tag          Charge          X              Y              Z
 ---- ---------------- ---------- -------------- -------------- --------------
    1 O                    8.0000    -0.09172605     0.00000000    -0.06434663
    2 H1                   1.0000    -0.09172605     0.00000000     0.91116337
    3 H2                   1.0000     0.82553442     0.00000000    -0.39639029

         Total SCF energy =    -76.054621464818

 Vector    2  Occ=2.000000D+00  E=-1.332528D+00

 Vector    3  Occ=2.000000D+00  E=-7.094018D-01

 Vector    4  Occ=2.000000D+00  E=-5.637136D-01

 Vector    5  Occ=2.000000D+00  E=-5.011170D-01

 Vector    6  Occ=0.000000D+00  E= 1.410048D-01

 Vector    7  Occ=0.000000D+00  E= 2.013174D-01

 Vector    8  Occ=0.000000D+00  E= 5.465994D-01

 Vector    9  Occ=0.000000D+00  E= 5.715170D-01

 Vector   10  Occ=0.000000D+00  E= 6.770914D-01

 Vector   11  Occ=0.000000D+00  E= 7.882800D-01

 Vector   12  Occ=0.000000D+00  E= 8.014785D-01

 Vector   13  Occ=0.000000D+00  E= 8.282459D-01

 Vector   14  Occ=0.000000D+00  E= 8.462259D-01

 Vector   15  Occ=0.000000D+00  E= 9.758737D-01

       Multipole analysis of the density wrt the origin
       ------------------------------------------------

     L   x y z        total         open         nuclear
     -   - - -        -----         ----         -------
     0   0 0 0     -0.000000      0.000000     10.000000

     1   1 0 0      0.628121      0.000000      0.000000
     1   0 1 0     -0.000000      0.000000      0.000000
     1   0 0 1      0.440632      0.000000      0.000000

     2   2 0 0     -4.048050      0.000000      2.704117
     2   1 1 0      0.000000      0.000000      0.000000
     2   1 0 1     -0.821168      0.000000     -1.298414
     2   0 2 0     -5.458385      0.000000      0.000000
     2   0 1 1      0.000000      0.000000      0.000000

 CCSD total energy / hartree       =       -76.063059027091469
 Total times  cpu:       22.7s     wall:       31.4s
