============================== echo of input deck ==============================
 echo
 start H2
 title "H2"

 memory total 24 gb

 geometry units bohr
 symmetry c1
        H  0.00000000  0.00000000  0.00000000
        H  0.00000000  1.85  0.00000000
 end

 basis
   * library cc-pVQZ
 end

 mcscf
   active  10
   actelec 2
   multiplicity 1
   maxiter 40
   vectors input H2.mos
   vectors output H2.mos
 end

 task mcscf

 scf
   vectors input H2.mos
   vectors output H2-1.85.mos
   noscf
 end

 tce
   2eorb
   2emet 13
   ccsd
   maxiter 300
   lshift 0.8
 end

# set tce:print_integrals T
# set tce:qorb 10
# set tce:qela 1
# set tce:qelb 1

 set tce:qducc T
 set tce:nactv 9
 set tce:nonhf T
 set tce:ducc_model 6

 set tce:printtol 0.02

 task tce
================================================================================

 Output coordinates in a.u. (scale by  1.000000000 to convert to a.u.)

  No.       Tag          Charge          X              Y              Z
 ---- ---------------- ---------- -------------- -------------- --------------
    1 H                    1.0000     0.00000000    -0.92500000     0.00000000
    2 H                    1.0000     0.00000000     0.92500000     0.00000000

 Vector    1  Occ=1.942987D+00  E=-5.550238D-01  Symmetry=a

 Vector    2  Occ=4.179704D-02  E=-2.232089D-02  Symmetry=a

 Vector    3  Occ=5.584636D-03  E=-4.173162D-03  Symmetry=a

 Vector    4  Occ=4.371969D-03  E=-3.300810D-03  Symmetry=a

 Vector    5  Occ=4.371969D-03  E=-3.300810D-03  Symmetry=a

 Vector    6  Occ=2.724124D-04  E=-3.299963D-04  Symmetry=a

 Vector    7  Occ=2.070170D-04  E=-2.673899D-04  Symmetry=a

 Vector    8  Occ=1.674972D-04  E=-2.152442D-04  Symmetry=a

 Vector    9  Occ=1.674972D-04  E=-2.152442D-04  Symmetry=a

 Vector   10  Occ=7.307146D-05  E=-1.220867D-04  Symmetry=a

 Vector   11  Occ=0.000000D+00  E= 4.074005D-01  Symmetry=a

 Vector   12  Occ=0.000000D+00  E= 8.783993D-01  Symmetry=a

 Vector   13  Occ=0.000000D+00  E= 1.083156D+00  Symmetry=a

 Vector   14  Occ=0.000000D+00  E= 1.304533D+00  Symmetry=a

 Vector   15  Occ=0.000000D+00  E= 1.304533D+00  Symmetry=a

 Vector   16  Occ=0.000000D+00  E= 1.390704D+00  Symmetry=a

 Vector   17  Occ=0.000000D+00  E= 1.390704D+00  Symmetry=a

 Vector   18  Occ=0.000000D+00  E= 1.882819D+00  Symmetry=a

 Vector   19  Occ=0.000000D+00  E= 1.921704D+00  Symmetry=a

 Vector   20  Occ=0.000000D+00  E= 1.921704D+00  Symmetry=a

         Total SCF energy =     -1.105837072775

 Vector    1  Occ=2.000000D+00  E=-5.550238D-01

 Vector    2  Occ=0.000000D+00  E=-2.232089D-02

 Vector    3  Occ=0.000000D+00  E=-4.173162D-03

 Vector    4  Occ=0.000000D+00  E=-3.300810D-03

 Vector    5  Occ=0.000000D+00  E=-3.300810D-03

 Vector    6  Occ=0.000000D+00  E=-3.299963D-04

 Vector    7  Occ=0.000000D+00  E=-2.673899D-04

 Vector    8  Occ=0.000000D+00  E=-2.152442D-04

 Vector    9  Occ=0.000000D+00  E=-2.152442D-04

 Vector   10  Occ=0.000000D+00  E=-1.220867D-04

 Vector   11  Occ=0.000000D+00  E= 4.074005D-01

 Vector   12  Occ=0.000000D+00  E= 8.783993D-01

       Multipole analysis of the density wrt the origin
       ------------------------------------------------

     L   x y z        total         open         nuclear
     -   - - -        -----         ----         -------
     0   0 0 0     -0.000000      0.000000      2.000000

     1   1 0 0      0.000000      0.000000      0.000000
     1   0 1 0      0.000000      0.000000      0.000000
     1   0 0 1     -0.000000      0.000000      0.000000

     2   2 0 0     -1.764040      0.000000      0.000000
     2   1 1 0      0.000000      0.000000      0.000000
     2   1 0 1     -0.000000      0.000000      0.000000
     2   0 2 0     -1.053150      0.000000      1.711250
     2   0 1 1     -0.000000      0.000000      0.000000

 CCSD total energy / hartree       =        -1.150468326494377
 Total times  cpu:      141.3s     wall:      144.1s
