============================== echo of input deck ==============================
 echo
 start H2
 title "H2"

 memory total 24 gb

 geometry units bohr
 symmetry c1
        H  0.00000000  0.00000000  0.00000000
        H  0.00000000  2.05  0.00000000
 end

 basis
   * library cc-pVQZ
 end

 mcscf
   active  10
   actelec 2
   multiplicity 1
   maxiter 40
   vectors input H2.mos
   vectors output H2.mos
 end

 task mcscf

 scf
   vectors input H2.mos
   vectors output H2-2.05.mos
   noscf
 end

 tce
   2eorb
   2emet 13
   ccsd
   maxiter 300
   lshift 0.8
 end

# set tce:print_integrals T
# set tce:qorb 10
# set tce:qela 1
# set tce:qelb 1

 set tce:qducc T
 set tce:nactv 9
 set tce:nonhf T
 set tce:ducc_model 6

 set tce:printtol 0.02

 task tce
================================================================================

 Output coordinates in a.u. (scale by  1.000000000 to convert to a.u.)

  No.       Tag          Charge          X              Y              Z
 ---- ---------------- ---------- -------------- -------------- --------------
    1 H                    1.0000     0.00000000    -1.02500000     0.00000000
    2 H                    1.0000     0.00000000     1.02500000     0.00000000

 Vector    1  Occ=1.928878D+00  E=-5.312176D-01  Symmetry=a

 Vector    2  Occ=5.649458D-02  E=-2.741667D-02  Symmetry=a

 Vector    3  Occ=5.221076D-03  E=-3.726004D-03  Symmetry=a

 Vector    4  Occ=4.243730D-03  E=-3.033207D-03  Symmetry=a

 Vector    5  Occ=4.243730D-03  E=-3.033207D-03  Symmetry=a

 Vector    6  Occ=2.992031D-04  E=-3.287091D-04  Symmetry=a

 Vector    7  Occ=2.072888D-04  E=-2.483093D-04  Symmetry=a

 Vector    8  Occ=1.715833D-04  E=-2.038456D-04  Symmetry=a

 Vector    9  Occ=1.715833D-04  E=-2.038456D-04  Symmetry=a

 Vector   10  Occ=6.896252D-05  E=-1.069987D-04  Symmetry=a

 Vector   11  Occ=0.000000D+00  E= 4.245909D-01  Symmetry=a

 Vector   12  Occ=0.000000D+00  E= 8.809387D-01  Symmetry=a

 Vector   13  Occ=0.000000D+00  E= 1.081419D+00  Symmetry=a

 Vector   14  Occ=0.000000D+00  E= 1.328624D+00  Symmetry=a

 Vector   15  Occ=0.000000D+00  E= 1.328624D+00  Symmetry=a

 Vector   16  Occ=0.000000D+00  E= 1.431737D+00  Symmetry=a

 Vector   17  Occ=0.000000D+00  E= 1.431737D+00  Symmetry=a

 Vector   18  Occ=0.000000D+00  E= 1.922887D+00  Symmetry=a

 Vector   19  Occ=0.000000D+00  E= 1.922887D+00  Symmetry=a

 Vector   20  Occ=0.000000D+00  E= 2.024555D+00  Symmetry=a

         Total SCF energy =     -1.085696467330

 Vector    1  Occ=2.000000D+00  E=-5.312176D-01

 Vector    2  Occ=0.000000D+00  E=-2.741667D-02

 Vector    3  Occ=0.000000D+00  E=-3.726004D-03

 Vector    4  Occ=0.000000D+00  E=-3.033207D-03

 Vector    5  Occ=0.000000D+00  E=-3.033207D-03

 Vector    6  Occ=0.000000D+00  E=-3.287091D-04

 Vector    7  Occ=0.000000D+00  E=-2.483093D-04

 Vector    8  Occ=0.000000D+00  E=-2.038456D-04

 Vector    9  Occ=0.000000D+00  E=-2.038456D-04

 Vector   10  Occ=0.000000D+00  E=-1.069987D-04

 Vector   11  Occ=0.000000D+00  E= 4.245909D-01

 Vector   12  Occ=0.000000D+00  E= 8.809387D-01

       Multipole analysis of the density wrt the origin
       ------------------------------------------------

     L   x y z        total         open         nuclear
     -   - - -        -----         ----         -------
     0   0 0 0     -0.000000      0.000000      2.000000

     1   1 0 0      0.000000      0.000000      0.000000
     1   0 1 0      0.000000      0.000000      0.000000
     1   0 0 1     -0.000000      0.000000      0.000000

     2   2 0 0     -1.858032      0.000000      0.000000
     2   1 1 0     -0.000000      0.000000      0.000000
     2   1 0 1     -0.000000      0.000000      0.000000
     2   0 2 0     -1.036205      0.000000      2.101250
     2   0 1 1      0.000000      0.000000      0.000000

 CCSD total energy / hartree       =        -1.133089665150371
 Total times  cpu:      146.4s     wall:      150.9s
