============================== echo of input deck ==============================
 echo
 start H2
 title "H2"

 memory total 24 gb

 geometry units bohr
 symmetry c1
        H  0.00000000  0.00000000  0.00000000
        H  0.00000000  2.40  0.00000000
 end

 basis
   * library cc-pVQZ
 end

 mcscf
   active  10
   actelec 2
   multiplicity 1
   maxiter 40
   vectors input H2.mos
   vectors output H2.mos
 end

 task mcscf

 scf
   vectors input H2.mos
   vectors output H2-2.40.mos
   noscf
 end

 tce
   2eorb
   2emet 13
   ccsd
   maxiter 300
   lshift 0.8
 end

# set tce:print_integrals T
# set tce:qorb 10
# set tce:qela 1
# set tce:qelb 1

 set tce:qducc T
 set tce:nactv 9
 set tce:nonhf T
 set tce:ducc_model 6

 set tce:printtol 0.02

 task tce
================================================================================

 Output coordinates in a.u. (scale by  1.000000000 to convert to a.u.)

  No.       Tag          Charge          X              Y              Z
 ---- ---------------- ---------- -------------- -------------- --------------
    1 H                    1.0000     0.00000000    -1.20000000     0.00000000
    2 H                    1.0000     0.00000000     1.20000000     0.00000000

 Vector    1  Occ=1.893663D+00  E=-4.946073D-01  Symmetry=a

 Vector    2  Occ=9.323795D-02  E=-3.906579D-02  Symmetry=a

 Vector    3  Occ=4.536177D-03  E=-3.019654D-03  Symmetry=a

 Vector    4  Occ=3.823156D-03  E=-2.523543D-03  Symmetry=a

 Vector    5  Occ=3.823156D-03  E=-2.523543D-03  Symmetry=a

 Vector    6  Occ=3.265014D-04  E=-3.078402D-04  Symmetry=a

 Vector    7  Occ=1.941781D-04  E=-2.076320D-04  Symmetry=a

 Vector    8  Occ=1.673049D-04  E=-1.765263D-04  Symmetry=a

 Vector    9  Occ=1.673049D-04  E=-1.765263D-04  Symmetry=a

 Vector   10  Occ=6.116721D-05  E=-8.368542D-05  Symmetry=a

 Vector   11  Occ=0.000000D+00  E= 4.506414D-01  Symmetry=a

 Vector   12  Occ=0.000000D+00  E= 8.697404D-01  Symmetry=a

 Vector   13  Occ=0.000000D+00  E= 1.074767D+00  Symmetry=a

 Vector   14  Occ=0.000000D+00  E= 1.361501D+00  Symmetry=a

 Vector   15  Occ=0.000000D+00  E= 1.361501D+00  Symmetry=a

 Vector   16  Occ=0.000000D+00  E= 1.494632D+00  Symmetry=a

 Vector   17  Occ=0.000000D+00  E= 1.494632D+00  Symmetry=a

 Vector   18  Occ=0.000000D+00  E= 1.938317D+00  Symmetry=a

 Vector   19  Occ=0.000000D+00  E= 1.938317D+00  Symmetry=a

 Vector   20  Occ=0.000000D+00  E= 2.042532D+00  Symmetry=a

         Total SCF energy =     -1.047911572073

 Vector    1  Occ=2.000000D+00  E=-4.946073D-01

 Vector    2  Occ=0.000000D+00  E=-3.906579D-02

 Vector    3  Occ=0.000000D+00  E=-3.019654D-03

 Vector    4  Occ=0.000000D+00  E=-2.523543D-03

 Vector    5  Occ=0.000000D+00  E=-2.523543D-03

 Vector    6  Occ=0.000000D+00  E=-3.078402D-04

 Vector    7  Occ=0.000000D+00  E=-2.076320D-04

 Vector    8  Occ=0.000000D+00  E=-1.765263D-04

 Vector    9  Occ=0.000000D+00  E=-1.765263D-04

 Vector   10  Occ=0.000000D+00  E=-8.368542D-05

 Vector   11  Occ=0.000000D+00  E= 4.506414D-01

 Vector   12  Occ=0.000000D+00  E= 8.697404D-01

       Multipole analysis of the density wrt the origin
       ------------------------------------------------

     L   x y z        total         open         nuclear
     -   - - -        -----         ----         -------
     0   0 0 0     -0.000000      0.000000      2.000000

     1   1 0 0      0.000000      0.000000      0.000000
     1   0 1 0      0.000000      0.000000      0.000000
     1   0 0 1      0.000000      0.000000      0.000000

     2   2 0 0     -1.998606      0.000000      0.000000
     2   1 1 0     -0.000000      0.000000      0.000000
     2   1 0 1     -0.000000      0.000000      0.000000
     2   0 2 0     -0.998244      0.000000      2.880000
     2   0 1 1      0.000000      0.000000      0.000000

 CCSD total energy / hartree       =        -1.101810556262013
 Total times  cpu:      144.1s     wall:      147.9s
