============================== echo of input deck ==============================
 echo
 start H2
 title "H2"

 memory total 24 gb

 geometry units bohr
 symmetry c1
        H  0.00000000  0.00000000  0.00000000
        H  0.00000000  4.30  0.00000000
 end

 basis
   * library cc-pVQZ
 end

 mcscf
   active  10
   actelec 2
   multiplicity 1
   maxiter 40
   vectors input H2.mos
   vectors output H2.mos
 end

 task mcscf

 scf
   vectors input H2.mos
   vectors output H2-4.30.mos
   noscf
 end

 tce
   2eorb
   2emet 13
   ccsd
   maxiter 300
   lshift 0.8
 end

# set tce:print_integrals T
# set tce:qorb 10
# set tce:qela 1
# set tce:qelb 1

 set tce:qducc T
 set tce:nactv 9
 set tce:nonhf T
 set tce:ducc_model 6

 set tce:printtol 0.02

 task tce
================================================================================

 Output coordinates in a.u. (scale by  1.000000000 to convert to a.u.)

  No.       Tag          Charge          X              Y              Z
 ---- ---------------- ---------- -------------- -------------- --------------
    1 H                    1.0000     0.00000000    -2.15000000     0.00000000
    2 H                    1.0000     0.00000000     2.15000000     0.00000000

 Vector    1  Occ=1.426004D+00  E=-3.412287D-01  Symmetry=a

 Vector    2  Occ=5.715585D-01  E=-1.578373D-01  Symmetry=a

 Vector    3  Occ=1.155521D-03  E=-6.171402D-04  Symmetry=a

 Vector    4  Occ=5.868225D-04  E=-3.302034D-04  Symmetry=a

 Vector    5  Occ=5.868225D-04  E=-3.302034D-04  Symmetry=a

 Vector    6  Occ=4.999545D-05  E=-3.208650D-05  Symmetry=a

 Vector    7  Occ=1.865139D-05  E=-1.553845D-05  Symmetry=a

 Vector    8  Occ=1.865139D-05  E=-1.553845D-05  Symmetry=a

 Vector    9  Occ=1.488187D-05  E=-1.354379D-05  Symmetry=a

 Vector   10  Occ=5.881408D-06  E=-7.209991D-06  Symmetry=a

 Vector   11  Occ=0.000000D+00  E= 4.659153D-01  Symmetry=a

 Vector   12  Occ=0.000000D+00  E= 8.055194D-01  Symmetry=a

 Vector   13  Occ=0.000000D+00  E= 9.071570D-01  Symmetry=a

 Vector   14  Occ=0.000000D+00  E= 1.351625D+00  Symmetry=a

 Vector   15  Occ=0.000000D+00  E= 1.351625D+00  Symmetry=a

 Vector   16  Occ=0.000000D+00  E= 1.696966D+00  Symmetry=a

 Vector   17  Occ=0.000000D+00  E= 1.798739D+00  Symmetry=a

 Vector   18  Occ=0.000000D+00  E= 1.798739D+00  Symmetry=a

 Vector   19  Occ=0.000000D+00  E= 1.949697D+00  Symmetry=a

 Vector   20  Occ=0.000000D+00  E= 1.949697D+00  Symmetry=a

         Total SCF energy =     -0.878346548958

 Vector    1  Occ=2.000000D+00  E=-3.412287D-01

 Vector    2  Occ=0.000000D+00  E=-1.578373D-01

 Vector    3  Occ=0.000000D+00  E=-6.171402D-04

 Vector    4  Occ=0.000000D+00  E=-3.302034D-04

 Vector    5  Occ=0.000000D+00  E=-3.302034D-04

 Vector    6  Occ=0.000000D+00  E=-3.208650D-05

 Vector    7  Occ=0.000000D+00  E=-1.553845D-05

 Vector    8  Occ=0.000000D+00  E=-1.553845D-05

 Vector    9  Occ=0.000000D+00  E=-1.354379D-05

 Vector   10  Occ=0.000000D+00  E=-7.209991D-06

 Vector   11  Occ=0.000000D+00  E= 4.659153D-01

 Vector   12  Occ=0.000000D+00  E= 8.055194D-01

       Multipole analysis of the density wrt the origin
       ------------------------------------------------

     L   x y z        total         open         nuclear
     -   - - -        -----         ----         -------
     0   0 0 0     -0.000000      0.000000      2.000000

     1   1 0 0     -0.000000      0.000000      0.000000
     1   0 1 0     -0.000000      0.000000      0.000000
     1   0 0 1      0.000000      0.000000      0.000000

     2   2 0 0     -2.209264      0.000000      0.000000
     2   1 1 0     -0.000000      0.000000      0.000000
     2   1 0 1      0.000000      0.000000      0.000000
     2   0 2 0     -1.024284      0.000000      9.245000
     2   0 1 1      0.000000      0.000000      0.000000

 CCSD total energy / hartree       =        -1.010162032874873
 Total times  cpu:      143.2s     wall:      147.3s
