============================== echo of input deck ==============================
 echo
 start H2
 title "H2"

 memory total 24 gb

 geometry units bohr
 symmetry c1
        H  0.00000000  0.00000000  0.00000000
        H  0.00000000  4.65  0.00000000
 end

 basis
   * library cc-pVQZ
 end

 mcscf
   active  10
   actelec 2
   multiplicity 1
   maxiter 40
   vectors input H2.mos
   vectors output H2.mos
 end

 task mcscf

 scf
   vectors input H2.mos
   vectors output H2-4.65.mos
   noscf
 end

 tce
   2eorb
   2emet 13
   ccsd
   maxiter 300
   lshift 0.8
 end

# set tce:print_integrals T
# set tce:qorb 10
# set tce:qela 1
# set tce:qelb 1

 set tce:qducc T
 set tce:nactv 9
 set tce:nonhf T
 set tce:ducc_model 6

 set tce:printtol 0.02

 task tce
================================================================================

 Output coordinates in a.u. (scale by  1.000000000 to convert to a.u.)

  No.       Tag          Charge          X              Y              Z
 ---- ---------------- ---------- -------------- -------------- --------------
    1 H                    1.0000     0.00000000    -2.32500000     0.00000000
    2 H                    1.0000     0.00000000     2.32500000     0.00000000

 Vector    1  Occ=1.335810D+00  E=-3.212376D-01  Symmetry=a

 Vector    2  Occ=6.626513D-01  E=-1.780049D-01  Symmetry=a

 Vector    3  Occ=8.033635D-04  E=-4.215813D-04  Symmetry=a

 Vector    4  Occ=3.428538D-04  E=-1.933144D-04  Symmetry=a

 Vector    5  Occ=3.428538D-04  E=-1.933144D-04  Symmetry=a

 Vector    6  Occ=2.403541D-05  E=-1.528080D-05  Symmetry=a

 Vector    7  Occ=8.189032D-06  E=-6.908458D-06  Symmetry=a

 Vector    8  Occ=8.189032D-06  E=-6.908458D-06  Symmetry=a

 Vector    9  Occ=6.501431D-06  E=-6.076707D-06  Symmetry=a

 Vector   10  Occ=2.674414D-06  E=-3.476144D-06  Symmetry=a

 Vector   11  Occ=0.000000D+00  E= 4.583477D-01  Symmetry=a

 Vector   12  Occ=0.000000D+00  E= 8.008283D-01  Symmetry=a

 Vector   13  Occ=0.000000D+00  E= 8.040056D-01  Symmetry=a

 Vector   14  Occ=0.000000D+00  E= 1.283464D+00  Symmetry=a

 Vector   15  Occ=0.000000D+00  E= 1.283464D+00  Symmetry=a

 Vector   16  Occ=0.000000D+00  E= 1.678364D+00  Symmetry=a

 Vector   17  Occ=0.000000D+00  E= 1.798495D+00  Symmetry=a

 Vector   18  Occ=0.000000D+00  E= 1.798495D+00  Symmetry=a

 Vector   19  Occ=0.000000D+00  E= 1.942164D+00  Symmetry=a

 Vector   20  Occ=0.000000D+00  E= 1.989372D+00  Symmetry=a

         Total SCF energy =     -0.856255336051

 Vector    1  Occ=2.000000D+00  E=-3.212376D-01

 Vector    2  Occ=0.000000D+00  E=-1.780049D-01

 Vector    3  Occ=0.000000D+00  E=-4.215813D-04

 Vector    4  Occ=0.000000D+00  E=-1.933144D-04

 Vector    5  Occ=0.000000D+00  E=-1.933144D-04

 Vector    6  Occ=0.000000D+00  E=-1.528080D-05

 Vector    7  Occ=0.000000D+00  E=-6.908458D-06

 Vector    8  Occ=0.000000D+00  E=-6.908458D-06

 Vector    9  Occ=0.000000D+00  E=-6.076707D-06

 Vector   10  Occ=0.000000D+00  E=-3.476144D-06

 Vector   11  Occ=0.000000D+00  E= 4.583477D-01

 Vector   12  Occ=0.000000D+00  E= 8.008283D-01

       Multipole analysis of the density wrt the origin
       ------------------------------------------------

     L   x y z        total         open         nuclear
     -   - - -        -----         ----         -------
     0   0 0 0     -0.000000      0.000000      2.000000

     1   1 0 0     -0.000000      0.000000      0.000000
     1   0 1 0     -0.000000      0.000000      0.000000
     1   0 0 1      0.000000      0.000000      0.000000

     2   2 0 0     -2.186294      0.000000      0.000000
     2   1 1 0     -0.000000      0.000000      0.000000
     2   1 0 1      0.000000      0.000000      0.000000
     2   0 2 0     -1.097629      0.000000     10.811250
     2   0 1 1      0.000000      0.000000      0.000000

 CCSD total energy / hartree       =        -1.005948157546436
 Total times  cpu:      140.8s     wall:      143.6s
