============================== echo of input deck ==============================
 echo
 start H2
 title "H2"

 memory total 24 gb

 geometry units bohr
 symmetry c1
        H  0.00000000  0.00000000  0.00000000
        H  0.00000000  4.90  0.00000000
 end

 basis
   * library cc-pVQZ
 end

 mcscf
   active  10
   actelec 2
   multiplicity 1
   maxiter 40
   vectors input H2.mos
   vectors output H2.mos
 end

 task mcscf

 scf
   vectors input H2.mos
   vectors output H2-4.90.mos
   noscf
 end

 tce
   2eorb
   2emet 13
   ccsd
   maxiter 300
   lshift 0.8
 end

# set tce:print_integrals T
# set tce:qorb 10
# set tce:qela 1
# set tce:qelb 1

 set tce:qducc T
 set tce:nactv 9
 set tce:nonhf T
 set tce:ducc_model 6

 set tce:printtol 0.02

 task tce
================================================================================

 Output coordinates in a.u. (scale by  1.000000000 to convert to a.u.)

  No.       Tag          Charge          X              Y              Z
 ---- ---------------- ---------- -------------- -------------- --------------
    1 H                    1.0000     0.00000000    -2.45000000     0.00000000
    2 H                    1.0000     0.00000000     2.45000000     0.00000000

 Vector    1  Occ=1.280378D+00  E=-3.092459D-01  Symmetry=a

 Vector    2  Occ=7.185265D-01  E=-1.901657D-01  Symmetry=a

 Vector    3  Occ=6.064139D-04  E=-3.159926D-04  Symmetry=a

 Vector    4  Occ=2.311133D-04  E=-1.306141D-04  Symmetry=a

 Vector    5  Occ=2.311133D-04  E=-1.306141D-04  Symmetry=a

 Vector    6  Occ=1.375936D-05  E=-8.736689D-06  Symmetry=a

 Vector    7  Occ=4.068820D-06  E=-3.628120D-06  Symmetry=a

 Vector    8  Occ=4.068820D-06  E=-3.628120D-06  Symmetry=a

 Vector    9  Occ=3.775590D-06  E=-3.622327D-06  Symmetry=a

 Vector   10  Occ=1.615749D-06  E=-2.116557D-06  Symmetry=a

 Vector   11  Occ=0.000000D+00  E= 4.429254D-01  Symmetry=a

 Vector   12  Occ=0.000000D+00  E= 7.345996D-01  Symmetry=a

 Vector   13  Occ=0.000000D+00  E= 7.983020D-01  Symmetry=a

 Vector   14  Occ=0.000000D+00  E= 1.190827D+00  Symmetry=a

 Vector   15  Occ=0.000000D+00  E= 1.190827D+00  Symmetry=a

 Vector   16  Occ=0.000000D+00  E= 1.712086D+00  Symmetry=a

 Vector   17  Occ=0.000000D+00  E= 1.799533D+00  Symmetry=a

 Vector   18  Occ=0.000000D+00  E= 1.799533D+00  Symmetry=a

 Vector   19  Occ=0.000000D+00  E= 1.906058D+00  Symmetry=a

 Vector   20  Occ=0.000000D+00  E= 2.007791D+00  Symmetry=a

         Total SCF energy =     -0.842233383520

 Vector    1  Occ=2.000000D+00  E=-3.092459D-01

 Vector    2  Occ=0.000000D+00  E=-1.901657D-01

 Vector    3  Occ=0.000000D+00  E=-3.159926D-04

 Vector    4  Occ=0.000000D+00  E=-1.306141D-04

 Vector    5  Occ=0.000000D+00  E=-1.306141D-04

 Vector    6  Occ=0.000000D+00  E=-8.736689D-06

 Vector    7  Occ=0.000000D+00  E=-3.628120D-06

 Vector    8  Occ=0.000000D+00  E=-3.628120D-06

 Vector    9  Occ=0.000000D+00  E=-3.622327D-06

 Vector   10  Occ=0.000000D+00  E=-2.116557D-06

 Vector   11  Occ=0.000000D+00  E= 4.429254D-01

 Vector   12  Occ=0.000000D+00  E= 7.345996D-01

       Multipole analysis of the density wrt the origin
       ------------------------------------------------

     L   x y z        total         open         nuclear
     -   - - -        -----         ----         -------
     0   0 0 0     -0.000000      0.000000      2.000000

     1   1 0 0     -0.000000      0.000000      0.000000
     1   0 1 0     -0.000000      0.000000      0.000000
     1   0 0 1      0.000000      0.000000      0.000000

     2   2 0 0     -2.167784      0.000000      0.000000
     2   1 1 0     -0.000000      0.000000      0.000000
     2   1 0 1      0.000000      0.000000      0.000000
     2   0 2 0     -1.156237      0.000000     12.005000
     2   0 1 1      0.000000      0.000000      0.000000

 CCSD total energy / hartree       =        -1.004007418284713
 Total times  cpu:      145.2s     wall:      148.5s
