============================== echo of input deck ==============================
 echo
 start H2
 title "H2"

 memory total 24 gb

 geometry units bohr
 symmetry c1
        H  0.00000000  0.00000000  0.00000000
        H  0.00000000  5.10  0.00000000
 end

 basis
   * library cc-pVQZ
 end

 mcscf
   active  10
   actelec 2
   multiplicity 1
   maxiter 40
   vectors input H2.mos
   vectors output H2.mos
 end

 task mcscf

 scf
   vectors input H2.mos
   vectors output H2-5.10.mos
   noscf
 end

 tce
   2eorb
   2emet 13
   ccsd
   maxiter 300
   lshift 0.8
 end

# set tce:print_integrals T
# set tce:qorb 10
# set tce:qela 1
# set tce:qelb 1

 set tce:qducc T
 set tce:nactv 9
 set tce:nonhf T
 set tce:ducc_model 6

 set tce:printtol 0.02

 task tce
================================================================================

 Output coordinates in a.u. (scale by  1.000000000 to convert to a.u.)

  No.       Tag          Charge          X              Y              Z
 ---- ---------------- ---------- -------------- -------------- --------------
    1 H                    1.0000     0.00000000    -2.55000000     0.00000000
    2 H                    1.0000     0.00000000     2.55000000     0.00000000

 Vector    1  Occ=1.241670D+00  E=-3.009670D-01  Symmetry=a

 Vector    2  Occ=7.574989D-01  E=-1.985653D-01  Symmetry=a

 Vector    3  Occ=4.776679D-04  E=-2.482965D-04  Symmetry=a

 Vector    4  Occ=1.680099D-04  E=-9.515444D-05  Symmetry=a

 Vector    5  Occ=1.680099D-04  E=-9.515444D-05  Symmetry=a

 Vector    6  Occ=8.765489D-06  E=-5.578191D-06  Symmetry=a

 Vector    7  Occ=2.460120D-06  E=-2.360577D-06  Symmetry=a

 Vector    8  Occ=2.365414D-06  E=-2.108971D-06  Symmetry=a

 Vector    9  Occ=2.365414D-06  E=-2.108971D-06  Symmetry=a

 Vector   10  Occ=1.090557D-06  E=-1.423622D-06  Symmetry=a

 Vector   11  Occ=0.000000D+00  E= 4.449701D-01  Symmetry=a

 Vector   12  Occ=0.000000D+00  E= 7.147815D-01  Symmetry=a

 Vector   13  Occ=0.000000D+00  E= 7.969593D-01  Symmetry=a

 Vector   14  Occ=0.000000D+00  E= 1.189325D+00  Symmetry=a

 Vector   15  Occ=0.000000D+00  E= 1.189325D+00  Symmetry=a

 Vector   16  Occ=0.000000D+00  E= 1.713248D+00  Symmetry=a

 Vector   17  Occ=0.000000D+00  E= 1.801449D+00  Symmetry=a

 Vector   18  Occ=0.000000D+00  E= 1.801449D+00  Symmetry=a

 Vector   19  Occ=0.000000D+00  E= 1.884477D+00  Symmetry=a

 Vector   20  Occ=0.000000D+00  E= 2.018075D+00  Symmetry=a

         Total SCF energy =     -0.832043009272

 Vector    1  Occ=2.000000D+00  E=-3.009670D-01

 Vector    2  Occ=0.000000D+00  E=-1.985653D-01

 Vector    3  Occ=0.000000D+00  E=-2.482965D-04

 Vector    4  Occ=0.000000D+00  E=-9.515444D-05

 Vector    5  Occ=0.000000D+00  E=-9.515444D-05

 Vector    6  Occ=0.000000D+00  E=-5.578191D-06

 Vector    7  Occ=0.000000D+00  E=-2.360577D-06

 Vector    8  Occ=0.000000D+00  E=-2.108971D-06

 Vector    9  Occ=0.000000D+00  E=-2.108971D-06

 Vector   10  Occ=0.000000D+00  E=-1.423622D-06

 Vector   11  Occ=0.000000D+00  E= 4.449701D-01

 Vector   12  Occ=0.000000D+00  E= 7.147815D-01

       Multipole analysis of the density wrt the origin
       ------------------------------------------------

     L   x y z        total         open         nuclear
     -   - - -        -----         ----         -------
     0   0 0 0     -0.000000      0.000000      2.000000

     1   1 0 0     -0.000000      0.000000      0.000000
     1   0 1 0     -0.000000      0.000000      0.000000
     1   0 0 1      0.000000      0.000000      0.000000

     2   2 0 0     -2.152837      0.000000      0.000000
     2   1 1 0     -0.000000      0.000000      0.000000
     2   1 0 1      0.000000      0.000000      0.000000
     2   0 2 0     -1.205094      0.000000     13.005000
     2   0 1 1      0.000000      0.000000      0.000000

 CCSD total energy / hartree       =        -1.002901430131818
 Total times  cpu:      142.3s     wall:      145.0s
