============================== echo of input deck ==============================
 echo
 start H2
 title "H2"

 memory total 24 gb

 geometry units bohr
 symmetry c1
        H  0.00000000  0.00000000  0.00000000
        H  0.00000000  5.85  0.00000000
 end

 basis
   * library cc-pVQZ
 end

 mcscf
   active  10
   actelec 2
   multiplicity 1
   maxiter 40
   vectors input H2.mos
   vectors output H2.mos
 end

 task mcscf

 scf
   vectors input H2.mos
   vectors output H2-5.85.mos
   noscf
 end

 tce
   2eorb
   2emet 13
   ccsd
   maxiter 300
   lshift 0.8
 end

# set tce:print_integrals T
# set tce:qorb 10
# set tce:qela 1
# set tce:qelb 1

 set tce:qducc T
 set tce:nactv 9
 set tce:nonhf T
 set tce:ducc_model 6

 set tce:printtol 0.02

 task tce
================================================================================

 Output coordinates in a.u. (scale by  1.000000000 to convert to a.u.)

  No.       Tag          Charge          X              Y              Z
 ---- ---------------- ---------- -------------- -------------- --------------
    1 H                    1.0000     0.00000000    -2.92500000     0.00000000
    2 H                    1.0000     0.00000000     2.92500000     0.00000000

 Vector    1  Occ=1.135513D+00  E=-2.785266D-01  Symmetry=a

 Vector    2  Occ=8.641993D-01  E=-2.212856D-01  Symmetry=a

 Vector    3  Occ=1.819844D-04  E=-9.558951D-05  Symmetry=a

 Vector    4  Occ=5.174460D-05  E=-2.954530D-05  Symmetry=a

 Vector    5  Occ=5.174460D-05  E=-2.954530D-05  Symmetry=a

 Vector    6  Occ=1.513157D-06  E=-9.941226D-07  Symmetry=a

 Vector    7  Occ=5.235848D-07  E=-4.972400D-07  Symmetry=a

 Vector    8  Occ=2.482917D-07  E=-3.088954D-07  Symmetry=a

 Vector    9  Occ=1.674397D-07  E=-1.520521D-07  Symmetry=a

 Vector   10  Occ=1.674397D-07  E=-1.520521D-07  Symmetry=a

 Vector   11  Occ=0.000000D+00  E= 4.345835D-01  Symmetry=a

 Vector   12  Occ=0.000000D+00  E= 6.595081D-01  Symmetry=a

 Vector   13  Occ=0.000000D+00  E= 8.142891D-01  Symmetry=a

 Vector   14  Occ=0.000000D+00  E= 1.153827D+00  Symmetry=a

 Vector   15  Occ=0.000000D+00  E= 1.153827D+00  Symmetry=a

 Vector   16  Occ=0.000000D+00  E= 1.752213D+00  Symmetry=a

 Vector   17  Occ=0.000000D+00  E= 1.815010D+00  Symmetry=a

 Vector   18  Occ=0.000000D+00  E= 1.815010D+00  Symmetry=a

 Vector   19  Occ=0.000000D+00  E= 1.859155D+00  Symmetry=a

 Vector   20  Occ=0.000000D+00  E= 2.038513D+00  Symmetry=a

         Total SCF energy =     -0.801170797120

 Vector    1  Occ=2.000000D+00  E=-2.785266D-01

 Vector    2  Occ=0.000000D+00  E=-2.212856D-01

 Vector    3  Occ=0.000000D+00  E=-9.558951D-05

 Vector    4  Occ=0.000000D+00  E=-2.954530D-05

 Vector    5  Occ=0.000000D+00  E=-2.954530D-05

 Vector    6  Occ=0.000000D+00  E=-9.941226D-07

 Vector    7  Occ=0.000000D+00  E=-4.972400D-07

 Vector    8  Occ=0.000000D+00  E=-3.088954D-07

 Vector    9  Occ=0.000000D+00  E=-1.520521D-07

 Vector   10  Occ=0.000000D+00  E=-1.520521D-07

 Vector   11  Occ=0.000000D+00  E= 4.345835D-01

 Vector   12  Occ=0.000000D+00  E= 6.595081D-01

       Multipole analysis of the density wrt the origin
       ------------------------------------------------

     L   x y z        total         open         nuclear
     -   - - -        -----         ----         -------
     0   0 0 0     -0.000000      0.000000      2.000000

     1   1 0 0     -0.000000      0.000000      0.000000
     1   0 1 0     -0.000000      0.000000      0.000000
     1   0 0 1      0.000000      0.000000      0.000000

     2   2 0 0     -2.101664      0.000000      0.000000
     2   1 1 0     -0.000000      0.000000      0.000000
     2   1 0 1      0.000000      0.000000      0.000000
     2   0 2 0     -1.388672      0.000000     17.111250
     2   0 1 1      0.000000      0.000000      0.000000

 CCSD total energy / hartree       =        -1.000807560970191
 Total times  cpu:      143.8s     wall:      146.4s
