============================== echo of input deck ==============================
 echo
 start H2
 title "H2"

 memory total 24 gb

 geometry units bohr
 symmetry c1
        H  0.00000000  0.00000000  0.00000000
        H  0.00000000  6.10  0.00000000
 end

 basis
   * library cc-pVQZ
 end

 mcscf
   active  10
   actelec 2
   multiplicity 1
   maxiter 40
   vectors input H2.mos
   vectors output H2.mos
 end

 task mcscf

 scf
   vectors input H2.mos
   vectors output H2-6.10.mos
   noscf
 end

 tce
   2eorb
   2emet 13
   ccsd
   maxiter 300
   lshift 0.8
 end

# set tce:print_integrals T
# set tce:qorb 10
# set tce:qela 1
# set tce:qelb 1

 set tce:qducc T
 set tce:nactv 9
 set tce:nonhf T
 set tce:ducc_model 6

 set tce:printtol 0.02

 task tce
================================================================================

 Output coordinates in a.u. (scale by  1.000000000 to convert to a.u.)

  No.       Tag          Charge          X              Y              Z
 ---- ---------------- ---------- -------------- -------------- --------------
    1 H                    1.0000     0.00000000    -3.05000000     0.00000000
    2 H                    1.0000     0.00000000     3.05000000     0.00000000

 Vector    1  Occ=1.111268D+00  E=-2.734271D-01  Symmetry=a

 Vector    2  Occ=8.885293D-01  E=-2.264299D-01  Symmetry=a

 Vector    3  Occ=1.304126D-04  E=-6.887172D-05  Symmetry=a

 Vector    4  Occ=3.555470D-05  E=-2.028248D-05  Symmetry=a

 Vector    5  Occ=3.555470D-05  E=-2.028248D-05  Symmetry=a

 Vector    6  Occ=8.340089D-07  E=-5.522530D-07  Symmetry=a

 Vector    7  Occ=3.140231D-07  E=-2.971681D-07  Symmetry=a

 Vector    8  Occ=1.469841D-07  E=-1.806266D-07  Symmetry=a

 Vector    9  Occ=4.110920D-08  E=-3.676944D-08  Symmetry=a

 Vector   10  Occ=4.110920D-08  E=-3.676944D-08  Symmetry=a

 Vector   11  Occ=0.000000D+00  E= 4.294031D-01  Symmetry=a

 Vector   12  Occ=0.000000D+00  E= 6.464673D-01  Symmetry=a

 Vector   13  Occ=0.000000D+00  E= 8.225134D-01  Symmetry=a

 Vector   14  Occ=0.000000D+00  E= 1.146617D+00  Symmetry=a

 Vector   15  Occ=0.000000D+00  E= 1.146617D+00  Symmetry=a

 Vector   16  Occ=0.000000D+00  E= 1.759726D+00  Symmetry=a

 Vector   17  Occ=0.000000D+00  E= 1.819737D+00  Symmetry=a

 Vector   18  Occ=0.000000D+00  E= 1.819737D+00  Symmetry=a

 Vector   19  Occ=0.000000D+00  E= 1.866082D+00  Symmetry=a

 Vector   20  Occ=0.000000D+00  E= 2.041144D+00  Symmetry=a

         Total SCF energy =     -0.793125101070

 Vector    1  Occ=2.000000D+00  E=-2.734271D-01

 Vector    2  Occ=0.000000D+00  E=-2.264299D-01

 Vector    3  Occ=0.000000D+00  E=-6.887172D-05

 Vector    4  Occ=0.000000D+00  E=-2.028248D-05

 Vector    5  Occ=0.000000D+00  E=-2.028248D-05

 Vector    6  Occ=0.000000D+00  E=-5.522530D-07

 Vector    7  Occ=0.000000D+00  E=-2.971681D-07

 Vector    8  Occ=0.000000D+00  E=-1.806266D-07

 Vector    9  Occ=0.000000D+00  E=-3.676944D-08

 Vector   10  Occ=0.000000D+00  E=-3.676944D-08

 Vector   11  Occ=0.000000D+00  E= 4.294031D-01

 Vector   12  Occ=0.000000D+00  E= 6.464673D-01

       Multipole analysis of the density wrt the origin
       ------------------------------------------------

     L   x y z        total         open         nuclear
     -   - - -        -----         ----         -------
     0   0 0 0     -0.000000      0.000000      2.000000

     1   1 0 0     -0.000000      0.000000      0.000000
     1   0 1 0     -0.000000      0.000000      0.000000
     1   0 0 1      0.000000      0.000000      0.000000

     2   2 0 0     -2.087381      0.000000      0.000000
     2   1 1 0     -0.000000      0.000000      0.000000
     2   1 0 1      0.000000      0.000000      0.000000
     2   0 2 0     -1.446450      0.000000     18.605000
     2   0 1 1      0.000000      0.000000      0.000000

 CCSD total energy / hartree       =        -1.000507239112743
 Total times  cpu:      140.3s     wall:      143.0s
