============================== echo of input deck ==============================
 echo
 start H2
 title "H2"

 memory total 24 gb

 geometry units bohr
 symmetry c1
        H  0.00000000  0.00000000  0.00000000
        H  0.00000000  6.40  0.00000000
 end

 basis
   * library cc-pVQZ
 end

 mcscf
   active  10
   actelec 2
   multiplicity 1
   maxiter 40
   vectors input H2.mos
   vectors output H2.mos
 end

 task mcscf

 scf
   vectors input H2.mos
   vectors output H2-6.40.mos
   noscf
 end

 tce
   2eorb
   2emet 13
   ccsd
   maxiter 300
   lshift 0.8
 end

# set tce:print_integrals T
# set tce:qorb 10
# set tce:qela 1
# set tce:qelb 1

 set tce:qducc T
 set tce:nactv 9
 set tce:nonhf T
 set tce:ducc_model 6

 set tce:printtol 0.02

 task tce
================================================================================

 Output coordinates in a.u. (scale by  1.000000000 to convert to a.u.)

  No.       Tag          Charge          X              Y              Z
 ---- ---------------- ---------- -------------- -------------- --------------
    1 H                    1.0000     0.00000000    -3.20000000     0.00000000
    2 H                    1.0000     0.00000000     3.20000000     0.00000000

 Vector    1  Occ=1.087661D+00  E=-2.684838D-01  Symmetry=a

 Vector    2  Occ=9.122050D-01  E=-2.314071D-01  Symmetry=a

 Vector    3  Occ=8.744302D-05  E=-4.675042D-05  Symmetry=a

 Vector    4  Occ=2.293342D-05  E=-1.312239D-05  Symmetry=a

 Vector    5  Occ=2.293342D-05  E=-1.312239D-05  Symmetry=a

 Vector    6  Occ=4.028496D-07  E=-2.734424D-07  Symmetry=a

 Vector    7  Occ=1.702061D-07  E=-1.593394D-07  Symmetry=a

 Vector    8  Occ=7.673389D-08  E=-9.235575D-08  Symmetry=a

 Vector    9  Occ=5.569135D-10  E=-5.023770D-10  Symmetry=a

 Vector   10  Occ=5.569135D-10  E=-5.023770D-10  Symmetry=a

 Vector   11  Occ=0.000000D+00  E= 4.234100D-01  Symmetry=a

 Vector   12  Occ=0.000000D+00  E= 6.338472D-01  Symmetry=a

 Vector   13  Occ=0.000000D+00  E= 8.308696D-01  Symmetry=a

 Vector   14  Occ=0.000000D+00  E= 1.139136D+00  Symmetry=a

 Vector   15  Occ=0.000000D+00  E= 1.139136D+00  Symmetry=a

 Vector   16  Occ=0.000000D+00  E= 1.763791D+00  Symmetry=a

 Vector   17  Occ=0.000000D+00  E= 1.826034D+00  Symmetry=a

 Vector   18  Occ=0.000000D+00  E= 1.826034D+00  Symmetry=a

 Vector   19  Occ=0.000000D+00  E= 1.879456D+00  Symmetry=a

 Vector   20  Occ=0.000000D+00  E= 2.045069D+00  Symmetry=a

         Total SCF energy =     -0.784694616886

 Vector    1  Occ=2.000000D+00  E=-2.684838D-01

 Vector    2  Occ=0.000000D+00  E=-2.314071D-01

 Vector    3  Occ=0.000000D+00  E=-4.675042D-05

 Vector    4  Occ=0.000000D+00  E=-1.312239D-05

 Vector    5  Occ=0.000000D+00  E=-1.312239D-05

 Vector    6  Occ=0.000000D+00  E=-2.734424D-07

 Vector    7  Occ=0.000000D+00  E=-1.593394D-07

 Vector    8  Occ=0.000000D+00  E=-9.235575D-08

 Vector    9  Occ=0.000000D+00  E=-5.023770D-10

 Vector   10  Occ=0.000000D+00  E=-5.023770D-10

 Vector   11  Occ=0.000000D+00  E= 4.234100D-01

 Vector   12  Occ=0.000000D+00  E= 6.338472D-01

       Multipole analysis of the density wrt the origin
       ------------------------------------------------

     L   x y z        total         open         nuclear
     -   - - -        -----         ----         -------
     0   0 0 0     -0.000000      0.000000      2.000000

     1   1 0 0     -0.000000      0.000000      0.000000
     1   0 1 0     -0.000000      0.000000      0.000000
     1   0 0 1      0.000000      0.000000      0.000000

     2   2 0 0     -2.072248      0.000000      0.000000
     2   1 1 0     -0.000000      0.000000      0.000000
     2   1 0 1      0.000000      0.000000      0.000000
     2   0 2 0     -1.511876      0.000000     20.480000
     2   0 1 1      0.000000      0.000000      0.000000

 CCSD total energy / hartree       =        -1.000274980622052
 Total times  cpu:      140.4s     wall:      143.3s
