============================== echo of input deck ==============================
 echo
 start H2
 title "H2"

 memory total 24 gb

 geometry units bohr
 symmetry c1
        H  0.00000000  0.00000000  0.00000000
        H  0.00000000  6.70  0.00000000
 end

 basis
   * library cc-pVQZ
 end

 mcscf
   active  10
   actelec 2
   multiplicity 1
   maxiter 40
   vectors input H2.mos
   vectors output H2.mos
 end

 task mcscf

 scf
   vectors input H2.mos
   vectors output H2-6.70.mos
   noscf
 end

 tce
   2eorb
   2emet 13
   ccsd
   maxiter 300
   lshift 0.8
 end

# set tce:print_integrals T
# set tce:qorb 10
# set tce:qela 1
# set tce:qelb 1

 set tce:qducc T
 set tce:nactv 9
 set tce:nonhf T
 set tce:ducc_model 6

 set tce:printtol 0.02

 task tce
================================================================================

 Output coordinates in a.u. (scale by  1.000000000 to convert to a.u.)

  No.       Tag          Charge          X              Y              Z
 ---- ---------------- ---------- -------------- -------------- --------------
    1 H                    1.0000     0.00000000    -3.35000000     0.00000000
    2 H                    1.0000     0.00000000     3.35000000     0.00000000

 Vector    1  Occ=1.068969D+00  E=-2.645627D-01  Symmetry=a

 Vector    2  Occ=9.309414D-01  E=-2.353490D-01  Symmetry=a

 Vector    3  Occ=5.924691D-05  E=-3.195483D-05  Symmetry=a

 Vector    4  Occ=1.507387D-05  E=-8.626636D-06  Symmetry=a

 Vector    5  Occ=1.507387D-05  E=-8.626636D-06  Symmetry=a

 Vector    6  Occ=1.926879D-07  E=-1.332264D-07  Symmetry=a

 Vector    7  Occ=9.121422D-08  E=-8.480485D-08  Symmetry=a

 Vector    8  Occ=3.923277D-08  E=-4.656982D-08  Symmetry=a

 Vector    9  Occ=9.667575D-09  E=-8.819849D-09  Symmetry=a

 Vector   10  Occ=9.667575D-09  E=-8.819849D-09  Symmetry=a

 Vector   11  Occ=0.000000D+00  E= 4.201333D-01  Symmetry=a

 Vector   12  Occ=0.000000D+00  E= 6.228099D-01  Symmetry=a

 Vector   13  Occ=0.000000D+00  E= 8.339116D-01  Symmetry=a

 Vector   14  Occ=0.000000D+00  E= 1.135653D+00  Symmetry=a

 Vector   15  Occ=0.000000D+00  E= 1.135653D+00  Symmetry=a

 Vector   16  Occ=0.000000D+00  E= 1.762400D+00  Symmetry=a

 Vector   17  Occ=0.000000D+00  E= 1.830869D+00  Symmetry=a

 Vector   18  Occ=0.000000D+00  E= 1.830869D+00  Symmetry=a

 Vector   19  Occ=0.000000D+00  E= 1.894616D+00  Symmetry=a

 Vector   20  Occ=0.000000D+00  E= 2.047520D+00  Symmetry=a

         Total SCF energy =     -0.777426609600

 Vector    1  Occ=2.000000D+00  E=-2.645627D-01

 Vector    2  Occ=0.000000D+00  E=-2.353490D-01

 Vector    3  Occ=0.000000D+00  E=-3.195483D-05

 Vector    4  Occ=0.000000D+00  E=-8.626636D-06

 Vector    5  Occ=0.000000D+00  E=-8.626636D-06

 Vector    6  Occ=0.000000D+00  E=-1.332264D-07

 Vector    7  Occ=0.000000D+00  E=-8.480485D-08

 Vector    8  Occ=0.000000D+00  E=-4.656982D-08

 Vector    9  Occ=0.000000D+00  E=-8.819849D-09

 Vector   10  Occ=0.000000D+00  E=-8.819849D-09

 Vector   11  Occ=0.000000D+00  E= 4.201333D-01

 Vector   12  Occ=0.000000D+00  E= 6.228099D-01

       Multipole analysis of the density wrt the origin
       ------------------------------------------------

     L   x y z        total         open         nuclear
     -   - - -        -----         ----         -------
     0   0 0 0     -0.000000      0.000000      2.000000

     1   1 0 0     -0.000000      0.000000      0.000000
     1   0 1 0     -0.000000      0.000000      0.000000
     1   0 0 1      0.000000      0.000000      0.000000

     2   2 0 0     -2.059207      0.000000      0.000000
     2   1 1 0     -0.000000      0.000000      0.000000
     2   1 0 1      0.000000      0.000000      0.000000
     2   0 2 0     -1.572421      0.000000     22.445000
     2   0 1 1      0.000000      0.000000      0.000000

 CCSD total energy / hartree       =        -1.000131862336032
 Total times  cpu:      141.2s     wall:      143.2s
