============================== echo of input deck ==============================
 echo
 start H2
 title "H2"

 memory total 24 gb

 geometry units bohr
 symmetry c1
        H  0.00000000  0.00000000  0.00000000
        H  0.00000000  6.75  0.00000000
 end

 basis
   * library cc-pVQZ
 end

 mcscf
   active  10
   actelec 2
   multiplicity 1
   maxiter 40
   vectors input H2.mos
   vectors output H2.mos
 end

 task mcscf

 scf
   vectors input H2.mos
   vectors output H2-6.75.mos
   noscf
 end

 tce
   2eorb
   2emet 13
   ccsd
   maxiter 300
   lshift 0.8
 end

# set tce:print_integrals T
# set tce:qorb 10
# set tce:qela 1
# set tce:qelb 1

 set tce:qducc T
 set tce:nactv 9
 set tce:nonhf T
 set tce:ducc_model 6

 set tce:printtol 0.02

 task tce
================================================================================

 Output coordinates in a.u. (scale by  1.000000000 to convert to a.u.)

  No.       Tag          Charge          X              Y              Z
 ---- ---------------- ---------- -------------- -------------- --------------
    1 H                    1.0000     0.00000000    -3.37500000     0.00000000
    2 H                    1.0000     0.00000000     3.37500000     0.00000000

 Vector    1  Occ=1.066257D+00  E=-2.639936D-01  Symmetry=a

 Vector    2  Occ=9.336587D-01  E=-2.359207D-01  Symmetry=a

 Vector    3  Occ=5.551869D-05  E=-3.000055D-05  Symmetry=a

 Vector    4  Occ=1.407332D-05  E=-8.056146D-06  Symmetry=a

 Vector    5  Occ=1.407332D-05  E=-8.056146D-06  Symmetry=a

 Vector    6  Occ=1.698894D-07  E=-1.177624D-07  Symmetry=a

 Vector    7  Occ=8.217566D-08  E=-7.632315D-08  Symmetry=a

 Vector    8  Occ=3.506455D-08  E=-4.155180D-08  Symmetry=a

 Vector    9  Occ=1.304220D-08  E=-1.189490D-08  Symmetry=a

 Vector   10  Occ=1.304220D-08  E=-1.189490D-08  Symmetry=a

 Vector   11  Occ=0.000000D+00  E= 4.199311D-01  Symmetry=a

 Vector   12  Occ=0.000000D+00  E= 6.210443D-01  Symmetry=a

 Vector   13  Occ=0.000000D+00  E= 8.335359D-01  Symmetry=a

 Vector   14  Occ=0.000000D+00  E= 1.135049D+00  Symmetry=a

 Vector   15  Occ=0.000000D+00  E= 1.135049D+00  Symmetry=a

 Vector   16  Occ=0.000000D+00  E= 1.761744D+00  Symmetry=a

 Vector   17  Occ=0.000000D+00  E= 1.831435D+00  Symmetry=a

 Vector   18  Occ=0.000000D+00  E= 1.831435D+00  Symmetry=a

 Vector   19  Occ=0.000000D+00  E= 1.897059D+00  Symmetry=a

 Vector   20  Occ=0.000000D+00  E= 2.047596D+00  Symmetry=a

         Total SCF energy =     -0.776316245126

 Vector    1  Occ=2.000000D+00  E=-2.639936D-01

 Vector    2  Occ=0.000000D+00  E=-2.359207D-01

 Vector    3  Occ=0.000000D+00  E=-3.000055D-05

 Vector    4  Occ=0.000000D+00  E=-8.056146D-06

 Vector    5  Occ=0.000000D+00  E=-8.056146D-06

 Vector    6  Occ=0.000000D+00  E=-1.177624D-07

 Vector    7  Occ=0.000000D+00  E=-7.632315D-08

 Vector    8  Occ=0.000000D+00  E=-4.155180D-08

 Vector    9  Occ=0.000000D+00  E=-1.189490D-08

 Vector   10  Occ=0.000000D+00  E=-1.189490D-08

 Vector   11  Occ=0.000000D+00  E= 4.199311D-01

 Vector   12  Occ=0.000000D+00  E= 6.210443D-01

       Multipole analysis of the density wrt the origin
       ------------------------------------------------

     L   x y z        total         open         nuclear
     -   - - -        -----         ----         -------
     0   0 0 0     -0.000000      0.000000      2.000000

     1   1 0 0     -0.000000      0.000000      0.000000
     1   0 1 0     -0.000000      0.000000      0.000000
     1   0 0 1      0.000000      0.000000      0.000000

     2   2 0 0     -2.057234      0.000000      0.000000
     2   1 1 0     -0.000000      0.000000      0.000000
     2   1 0 1      0.000000      0.000000      0.000000
     2   0 2 0     -1.581985      0.000000     22.781250
     2   0 1 1      0.000000      0.000000      0.000000

 CCSD total energy / hartree       =        -1.000114053180965
 Total times  cpu:      148.2s     wall:      151.4s
