============================== echo of input deck ==============================
 echo
 start H2
 title "H2"

 memory total 24 gb

 geometry units bohr
 symmetry c1
        H  0.00000000  0.00000000  0.00000000
        H  0.00000000  6.85  0.00000000
 end

 basis
   * library cc-pVQZ
 end

 mcscf
   active  10
   actelec 2
   multiplicity 1
   maxiter 40
   vectors input H2.mos
   vectors output H2.mos
 end

 task mcscf

 scf
   vectors input H2.mos
   vectors output H2-6.85.mos
   noscf
 end

 tce
   2eorb
   2emet 13
   ccsd
   maxiter 300
   lshift 0.8
 end

# set tce:print_integrals T
# set tce:qorb 10
# set tce:qela 1
# set tce:qelb 1

 set tce:qducc T
 set tce:nactv 9
 set tce:nonhf T
 set tce:ducc_model 6

 set tce:printtol 0.02

 task tce
================================================================================

 Output coordinates in a.u. (scale by  1.000000000 to convert to a.u.)

  No.       Tag          Charge          X              Y              Z
 ---- ---------------- ---------- -------------- -------------- --------------
    1 H                    1.0000     0.00000000    -3.42500000     0.00000000
    2 H                    1.0000     0.00000000     3.42500000     0.00000000

 Vector    1  Occ=1.061140D+00  E=-2.629193D-01  Symmetry=a

 Vector    2  Occ=9.387863D-01  E=-2.369997D-01  Symmetry=a

 Vector    3  Occ=4.879662D-05  E=-2.646313D-05  Symmetry=a

 Vector    4  Occ=1.228718D-05  E=-7.036794D-06  Symmetry=a

 Vector    5  Occ=1.228718D-05  E=-7.036794D-06  Symmetry=a

 Vector    6  Occ=1.319715D-07  E=-9.196230D-08  Symmetry=a

 Vector    7  Occ=6.658538D-08  E=-6.172253D-08  Symmetry=a

 Vector    8  Occ=2.798081D-08  E=-3.304337D-08  Symmetry=a

 Vector    9  Occ=2.033138D-08  E=-1.853559D-08  Symmetry=a

 Vector   10  Occ=2.033138D-08  E=-1.853559D-08  Symmetry=a

 Vector   11  Occ=0.000000D+00  E= 4.197592D-01  Symmetry=a

 Vector   12  Occ=0.000000D+00  E= 6.176221D-01  Symmetry=a

 Vector   13  Occ=0.000000D+00  E= 8.323385D-01  Symmetry=a

 Vector   14  Occ=0.000000D+00  E= 1.133972D+00  Symmetry=a

 Vector   15  Occ=0.000000D+00  E= 1.133972D+00  Symmetry=a

 Vector   16  Occ=0.000000D+00  E= 1.760194D+00  Symmetry=a

 Vector   17  Occ=0.000000D+00  E= 1.832500D+00  Symmetry=a

 Vector   18  Occ=0.000000D+00  E= 1.832500D+00  Symmetry=a

 Vector   19  Occ=0.000000D+00  E= 1.901765D+00  Symmetry=a

 Vector   20  Occ=0.000000D+00  E= 2.047761D+00  Symmetry=a

         Total SCF energy =     -0.774174545937

 Vector    1  Occ=2.000000D+00  E=-2.629193D-01

 Vector    2  Occ=0.000000D+00  E=-2.369997D-01

 Vector    3  Occ=0.000000D+00  E=-2.646313D-05

 Vector    4  Occ=0.000000D+00  E=-7.036794D-06

 Vector    5  Occ=0.000000D+00  E=-7.036794D-06

 Vector    6  Occ=0.000000D+00  E=-9.196230D-08

 Vector    7  Occ=0.000000D+00  E=-6.172253D-08

 Vector    8  Occ=0.000000D+00  E=-3.304337D-08

 Vector    9  Occ=0.000000D+00  E=-1.853559D-08

 Vector   10  Occ=0.000000D+00  E=-1.853559D-08

 Vector   11  Occ=0.000000D+00  E= 4.197592D-01

 Vector   12  Occ=0.000000D+00  E= 6.176221D-01

       Multipole analysis of the density wrt the origin
       ------------------------------------------------

     L   x y z        total         open         nuclear
     -   - - -        -----         ----         -------
     0   0 0 0     -0.000000      0.000000      2.000000

     1   1 0 0     -0.000000      0.000000      0.000000
     1   0 1 0     -0.000000      0.000000      0.000000
     1   0 0 1      0.000000      0.000000      0.000000

     2   2 0 0     -2.053429      0.000000      0.000000
     2   1 1 0     -0.000000      0.000000      0.000000
     2   1 0 1      0.000000      0.000000      0.000000
     2   0 2 0     -1.600687      0.000000     23.461250
     2   0 1 1      0.000000      0.000000      0.000000

 CCSD total energy / hartree       =        -1.000082462600475
 Total times  cpu:      145.6s     wall:      148.9s
