============================== echo of input deck ==============================
 echo
 start H2
 title "H2"

 memory total 24 gb

 geometry units bohr
 symmetry c1
        H  0.00000000  0.00000000  0.00000000
        H  0.00000000  3.30  0.00000000
 end

 basis
   * library cc-pVQZ
 end

 mcscf
   active  10
   actelec 2
   multiplicity 1
   maxiter 40
   vectors input H2.mos
   vectors output H2.mos
 end

 task mcscf

 scf
   vectors input H2.mos
   vectors output H2-3.30.mos
   noscf
 end

 tce
   2eorb
   2emet 13
   ccsd
   maxiter 300
   lshift 0.8
 end

# set tce:print_integrals T
# set tce:qorb 10
# set tce:qela 1
# set tce:qelb 1

 set tce:qducc T
 set tce:nactv 9
 set tce:nonhf T
 set tce:ducc_model 3

 set tce:printtol 0.02

 task tce
================================================================================

 Output coordinates in a.u. (scale by  1.000000000 to convert to a.u.)

  No.       Tag          Charge          X              Y              Z
 ---- ---------------- ---------- -------------- -------------- --------------
    1 H                    1.0000     0.00000000    -1.65000000     0.00000000
    2 H                    1.0000     0.00000000     1.65000000     0.00000000

 Vector    1  Occ=1.717598D+00  E=-4.153988D-01  Symmetry=a

 Vector    2  Occ=2.750065D-01  E=-8.815354D-02  Symmetry=a

 Vector    3  Occ=2.700259D-03  E=-1.582282D-03  Symmetry=a

 Vector    4  Occ=2.070506D-03  E=-1.210623D-03  Symmetry=a

 Vector    5  Occ=2.070506D-03  E=-1.210623D-03  Symmetry=a

 Vector    6  Occ=2.274930D-04  E=-1.622037D-04  Symmetry=a

 Vector    7  Occ=9.804670D-05  E=-8.760631D-05  Symmetry=a

 Vector    8  Occ=9.638721D-05  E=-8.323743D-05  Symmetry=a

 Vector    9  Occ=9.638721D-05  E=-8.323743D-05  Symmetry=a

 Vector   10  Occ=3.581031D-05  E=-3.833592D-05  Symmetry=a

 Vector   11  Occ=0.000000D+00  E= 4.800282D-01  Symmetry=a

 Vector   12  Occ=0.000000D+00  E= 8.157398D-01  Symmetry=a

 Vector   13  Occ=0.000000D+00  E= 1.041343D+00  Symmetry=a

 Vector   14  Occ=0.000000D+00  E= 1.403917D+00  Symmetry=a

 Vector   15  Occ=0.000000D+00  E= 1.403917D+00  Symmetry=a

 Vector   16  Occ=0.000000D+00  E= 1.662723D+00  Symmetry=a

 Vector   17  Occ=0.000000D+00  E= 1.662723D+00  Symmetry=a

 Vector   18  Occ=0.000000D+00  E= 1.882180D+00  Symmetry=a

 Vector   19  Occ=0.000000D+00  E= 1.895345D+00  Symmetry=a

 Vector   20  Occ=0.000000D+00  E= 1.895345D+00  Symmetry=a

         Total SCF energy =     -0.957360434273

 Vector    1  Occ=2.000000D+00  E=-4.153988D-01

 Vector    2  Occ=0.000000D+00  E=-8.815354D-02

 Vector    3  Occ=0.000000D+00  E=-1.582282D-03

 Vector    4  Occ=0.000000D+00  E=-1.210623D-03

 Vector    5  Occ=0.000000D+00  E=-1.210623D-03

 Vector    6  Occ=0.000000D+00  E=-1.622037D-04

 Vector    7  Occ=0.000000D+00  E=-8.760631D-05

 Vector    8  Occ=0.000000D+00  E=-8.323743D-05

 Vector    9  Occ=0.000000D+00  E=-8.323743D-05

 Vector   10  Occ=0.000000D+00  E=-3.833592D-05

 Vector   11  Occ=0.000000D+00  E= 4.800282D-01

 Vector   12  Occ=0.000000D+00  E= 8.157398D-01

       Multipole analysis of the density wrt the origin
       ------------------------------------------------

     L   x y z        total         open         nuclear
     -   - - -        -----         ----         -------
     0   0 0 0     -0.000000      0.000000      2.000000

     1   1 0 0     -0.000000      0.000000      0.000000
     1   0 1 0     -0.000000      0.000000      0.000000
     1   0 0 1      0.000000      0.000000      0.000000

     2   2 0 0     -2.202031      0.000000      0.000000
     2   1 1 0      0.000000      0.000000      0.000000
     2   1 0 1     -0.000000      0.000000      0.000000
     2   0 2 0     -0.927880      0.000000      5.445000
     2   0 1 1      0.000000      0.000000      0.000000

 CCSD total energy / hartree       =        -1.040022103396603
 Total times  cpu:       37.5s     wall:       41.1s
