============================== echo of input deck ==============================
 echo
 start H2
 title "H2"

 memory total 24 gb

 geometry units bohr
 symmetry c1
        H  0.00000000  0.00000000  0.00000000
        H  0.00000000  3.35  0.00000000
 end

 basis
   * library cc-pVQZ
 end

 mcscf
   active  10
   actelec 2
   multiplicity 1
   maxiter 40
   vectors input H2.mos
   vectors output H2.mos
 end

 task mcscf

 scf
   vectors input H2.mos
   vectors output H2-3.35.mos
   noscf
 end

 tce
   2eorb
   2emet 13
   ccsd
   maxiter 300
   lshift 0.8
 end

# set tce:print_integrals T
# set tce:qorb 10
# set tce:qela 1
# set tce:qelb 1

 set tce:qducc T
 set tce:nactv 9
 set tce:nonhf T
 set tce:ducc_model 3

 set tce:printtol 0.02

 task tce
================================================================================

 Output coordinates in a.u. (scale by  1.000000000 to convert to a.u.)

  No.       Tag          Charge          X              Y              Z
 ---- ---------------- ---------- -------------- -------------- --------------
    1 H                    1.0000     0.00000000    -1.67500000     0.00000000
    2 H                    1.0000     0.00000000     1.67500000     0.00000000

 Vector    1  Occ=1.704110D+00  E=-4.112988D-01  Symmetry=a

 Vector    2  Occ=2.888204D-01  E=-9.159796D-02  Symmetry=a

 Vector    3  Occ=2.604530D-03  E=-1.517937D-03  Symmetry=a

 Vector    4  Occ=1.970187D-03  E=-1.147198D-03  Symmetry=a

 Vector    5  Occ=1.970187D-03  E=-1.147198D-03  Symmetry=a

 Vector    6  Occ=2.165619D-04  E=-1.530914D-04  Symmetry=a

 Vector    7  Occ=9.168082D-05  E=-8.177480D-05  Symmetry=a

 Vector    8  Occ=9.120936D-05  E=-7.827133D-05  Symmetry=a

 Vector    9  Occ=9.120936D-05  E=-7.827133D-05  Symmetry=a

 Vector   10  Occ=3.414173D-05  E=-3.625609D-05  Symmetry=a

 Vector   11  Occ=0.000000D+00  E= 4.805627D-01  Symmetry=a

 Vector   12  Occ=0.000000D+00  E= 8.155100D-01  Symmetry=a

 Vector   13  Occ=0.000000D+00  E= 1.037728D+00  Symmetry=a

 Vector   14  Occ=0.000000D+00  E= 1.404381D+00  Symmetry=a

 Vector   15  Occ=0.000000D+00  E= 1.404381D+00  Symmetry=a

 Vector   16  Occ=0.000000D+00  E= 1.674593D+00  Symmetry=a

 Vector   17  Occ=0.000000D+00  E= 1.674593D+00  Symmetry=a

 Vector   18  Occ=0.000000D+00  E= 1.869928D+00  Symmetry=a

 Vector   19  Occ=0.000000D+00  E= 1.890372D+00  Symmetry=a

 Vector   20  Occ=0.000000D+00  E= 1.890372D+00  Symmetry=a

         Total SCF energy =     -0.952854258385

 Vector    1  Occ=2.000000D+00  E=-4.112988D-01

 Vector    2  Occ=0.000000D+00  E=-9.159796D-02

 Vector    3  Occ=0.000000D+00  E=-1.517937D-03

 Vector    4  Occ=0.000000D+00  E=-1.147198D-03

 Vector    5  Occ=0.000000D+00  E=-1.147198D-03

 Vector    6  Occ=0.000000D+00  E=-1.530914D-04

 Vector    7  Occ=0.000000D+00  E=-8.177480D-05

 Vector    8  Occ=0.000000D+00  E=-7.827133D-05

 Vector    9  Occ=0.000000D+00  E=-7.827133D-05

 Vector   10  Occ=0.000000D+00  E=-3.625609D-05

 Vector   11  Occ=0.000000D+00  E= 4.805627D-01

 Vector   12  Occ=0.000000D+00  E= 8.155100D-01

       Multipole analysis of the density wrt the origin
       ------------------------------------------------

     L   x y z        total         open         nuclear
     -   - - -        -----         ----         -------
     0   0 0 0     -0.000000      0.000000      2.000000

     1   1 0 0     -0.000000      0.000000      0.000000
     1   0 1 0     -0.000000      0.000000      0.000000
     1   0 0 1      0.000000      0.000000      0.000000

     2   2 0 0     -2.206806      0.000000      0.000000
     2   1 1 0      0.000000      0.000000      0.000000
     2   1 0 1     -0.000000      0.000000      0.000000
     2   0 2 0     -0.927760      0.000000      5.611250
     2   0 1 1      0.000000      0.000000      0.000000

 CCSD total energy / hartree       =        -1.037647577342422
 Total times  cpu:       37.1s     wall:       40.6s
