============================== echo of input deck ==============================
 echo
 start H2
 title "H2"

 memory total 24 gb

 geometry units bohr
 symmetry c1
        H  0.00000000  0.00000000  0.00000000
        H  0.00000000  4.50  0.00000000
 end

 basis
   * library cc-pVQZ
 end

 mcscf
   active  10
   actelec 2
   multiplicity 1
   maxiter 40
   vectors input H2.mos
   vectors output H2.mos
 end

 task mcscf

 scf
   vectors input H2.mos
   vectors output H2-4.50.mos
   noscf
 end

 tce
   2eorb
   2emet 13
   ccsd
   maxiter 300
   lshift 0.8
 end

# set tce:print_integrals T
# set tce:qorb 10
# set tce:qela 1
# set tce:qelb 1

 set tce:qducc T
 set tce:nactv 9
 set tce:nonhf T
 set tce:ducc_model 3

 set tce:printtol 0.02

 task tce
================================================================================

 Output coordinates in a.u. (scale by  1.000000000 to convert to a.u.)

  No.       Tag          Charge          X              Y              Z
 ---- ---------------- ---------- -------------- -------------- --------------
    1 H                    1.0000     0.00000000    -2.25000000     0.00000000
    2 H                    1.0000     0.00000000     2.25000000     0.00000000

 Vector    1  Occ=1.372714D+00  E=-3.293483D-01  Symmetry=a

 Vector    2  Occ=6.254062D-01  E=-1.697992D-01  Symmetry=a

 Vector    3  Occ=9.437325D-04  E=-4.978784D-04  Symmetry=a

 Vector    4  Occ=4.336384D-04  E=-2.439081D-04  Symmetry=a

 Vector    5  Occ=4.336384D-04  E=-2.439081D-04  Symmetry=a

 Vector    6  Occ=3.284644D-05  E=-2.120645D-05  Symmetry=a

 Vector    7  Occ=1.159401D-05  E=-9.943063D-06  Symmetry=a

 Vector    8  Occ=1.159401D-05  E=-9.943063D-06  Symmetry=a

 Vector    9  Occ=9.156649D-06  E=-8.540684D-06  Symmetry=a

 Vector   10  Occ=3.719260D-06  E=-4.726315D-06  Symmetry=a

 Vector   11  Occ=0.000000D+00  E= 4.643950D-01  Symmetry=a

 Vector   12  Occ=0.000000D+00  E= 8.038802D-01  Symmetry=a

 Vector   13  Occ=0.000000D+00  E= 8.560561D-01  Symmetry=a

 Vector   14  Occ=0.000000D+00  E= 1.328489D+00  Symmetry=a

 Vector   15  Occ=0.000000D+00  E= 1.328489D+00  Symmetry=a

 Vector   16  Occ=0.000000D+00  E= 1.679520D+00  Symmetry=a

 Vector   17  Occ=0.000000D+00  E= 1.799055D+00  Symmetry=a

 Vector   18  Occ=0.000000D+00  E= 1.799055D+00  Symmetry=a

 Vector   19  Occ=0.000000D+00  E= 1.969808D+00  Symmetry=a

 Vector   20  Occ=0.000000D+00  E= 1.974938D+00  Symmetry=a

         Total SCF energy =     -0.865366563474

 Vector    1  Occ=2.000000D+00  E=-3.293483D-01

 Vector    2  Occ=0.000000D+00  E=-1.697992D-01

 Vector    3  Occ=0.000000D+00  E=-4.978784D-04

 Vector    4  Occ=0.000000D+00  E=-2.439081D-04

 Vector    5  Occ=0.000000D+00  E=-2.439081D-04

 Vector    6  Occ=0.000000D+00  E=-2.120645D-05

 Vector    7  Occ=0.000000D+00  E=-9.943063D-06

 Vector    8  Occ=0.000000D+00  E=-9.943063D-06

 Vector    9  Occ=0.000000D+00  E=-8.540684D-06

 Vector   10  Occ=0.000000D+00  E=-4.726315D-06

 Vector   11  Occ=0.000000D+00  E= 4.643950D-01

 Vector   12  Occ=0.000000D+00  E= 8.038802D-01

       Multipole analysis of the density wrt the origin
       ------------------------------------------------

     L   x y z        total         open         nuclear
     -   - - -        -----         ----         -------
     0   0 0 0     -0.000000      0.000000      2.000000

     1   1 0 0     -0.000000      0.000000      0.000000
     1   0 1 0     -0.000000      0.000000      0.000000
     1   0 0 1      0.000000      0.000000      0.000000

     2   2 0 0     -2.196762      0.000000      0.000000
     2   1 1 0     -0.000000      0.000000      0.000000
     2   1 0 1      0.000000      0.000000      0.000000
     2   0 2 0     -1.064596      0.000000     10.125000
     2   0 1 1      0.000000      0.000000      0.000000

 CCSD total energy / hartree       =        -1.007502565613714
 Total times  cpu:       40.1s     wall:       43.5s
