============================== echo of input deck ==============================
 echo
 start H2
 title "H2"

 memory total 24 gb

 geometry units bohr
 symmetry c1
        H  0.00000000  0.00000000  0.00000000
        H  0.00000000  4.75  0.00000000
 end

 basis
   * library cc-pVQZ
 end

 mcscf
   active  10
   actelec 2
   multiplicity 1
   maxiter 40
   vectors input H2.mos
   vectors output H2.mos
 end

 task mcscf

 scf
   vectors input H2.mos
   vectors output H2-4.75.mos
   noscf
 end

 tce
   2eorb
   2emet 13
   ccsd
   maxiter 300
   lshift 0.8
 end

# set tce:print_integrals T
# set tce:qorb 10
# set tce:qela 1
# set tce:qelb 1

 set tce:qducc T
 set tce:nactv 9
 set tce:nonhf T
 set tce:ducc_model 3

 set tce:printtol 0.02

 task tce
================================================================================

 Output coordinates in a.u. (scale by  1.000000000 to convert to a.u.)

  No.       Tag          Charge          X              Y              Z
 ---- ---------------- ---------- -------------- -------------- --------------
    1 H                    1.0000     0.00000000    -2.37500000     0.00000000
    2 H                    1.0000     0.00000000     2.37500000     0.00000000

 Vector    1  Occ=1.312641D+00  E=-3.162023D-01  Symmetry=a

 Vector    2  Occ=6.860129D-01  E=-1.831103D-01  Symmetry=a

 Vector    3  Occ=7.202871D-04  E=-3.766851D-04  Symmetry=a

 Vector    4  Occ=2.934847D-04  E=-1.656361D-04  Symmetry=a

 Vector    5  Occ=2.934847D-04  E=-1.656361D-04  Symmetry=a

 Vector    6  Occ=1.913533D-05  E=-1.215499D-05  Symmetry=a

 Vector    7  Occ=5.934669D-06  E=-5.310233D-06  Symmetry=a

 Vector    8  Occ=5.934669D-06  E=-5.310233D-06  Symmetry=a

 Vector    9  Occ=5.207876D-06  E=-4.993142D-06  Symmetry=a

 Vector   10  Occ=2.188721D-06  E=-2.855979D-06  Symmetry=a

 Vector   11  Occ=0.000000D+00  E= 4.402478D-01  Symmetry=a

 Vector   12  Occ=0.000000D+00  E= 7.507346D-01  Symmetry=a

 Vector   13  Occ=0.000000D+00  E= 8.010428D-01  Symmetry=a

 Vector   14  Occ=0.000000D+00  E= 1.188711D+00  Symmetry=a

 Vector   15  Occ=0.000000D+00  E= 1.188711D+00  Symmetry=a

 Vector   16  Occ=0.000000D+00  E= 1.716968D+00  Symmetry=a

 Vector   17  Occ=0.000000D+00  E= 1.799460D+00  Symmetry=a

 Vector   18  Occ=0.000000D+00  E= 1.799460D+00  Symmetry=a

 Vector   19  Occ=0.000000D+00  E= 1.926758D+00  Symmetry=a

 Vector   20  Occ=0.000000D+00  E= 1.998395D+00  Symmetry=a

         Total SCF energy =     -0.850469457196

 Vector    1  Occ=2.000000D+00  E=-3.162023D-01

 Vector    2  Occ=0.000000D+00  E=-1.831103D-01

 Vector    3  Occ=0.000000D+00  E=-3.766851D-04

 Vector    4  Occ=0.000000D+00  E=-1.656361D-04

 Vector    5  Occ=0.000000D+00  E=-1.656361D-04

 Vector    6  Occ=0.000000D+00  E=-1.215499D-05

 Vector    7  Occ=0.000000D+00  E=-5.310233D-06

 Vector    8  Occ=0.000000D+00  E=-5.310233D-06

 Vector    9  Occ=0.000000D+00  E=-4.993142D-06

 Vector   10  Occ=0.000000D+00  E=-2.855979D-06

 Vector   11  Occ=0.000000D+00  E= 4.402478D-01

 Vector   12  Occ=0.000000D+00  E= 7.507346D-01

       Multipole analysis of the density wrt the origin
       ------------------------------------------------

     L   x y z        total         open         nuclear
     -   - - -        -----         ----         -------
     0   0 0 0     -0.000000      0.000000      2.000000

     1   1 0 0     -0.000000      0.000000      0.000000
     1   0 1 0     -0.000000      0.000000      0.000000
     1   0 0 1      0.000000      0.000000      0.000000

     2   2 0 0     -2.178949      0.000000      0.000000
     2   1 1 0     -0.000000      0.000000      0.000000
     2   1 0 1      0.000000      0.000000      0.000000
     2   0 2 0     -1.120638      0.000000     11.281250
     2   0 1 1      0.000000      0.000000      0.000000

 CCSD total energy / hartree       =        -1.005084900794480
 Total times  cpu:       35.9s     wall:       39.0s
