============================== echo of input deck ==============================
 echo
 start H2
 title "H2"

 memory total 24 gb

 geometry units bohr
 symmetry c1
        H  0.00000000  0.00000000  0.00000000
        H  0.00000000  5.05  0.00000000
 end

 basis
   * library cc-pVQZ
 end

 mcscf
   active  10
   actelec 2
   multiplicity 1
   maxiter 40
   vectors input H2.mos
   vectors output H2.mos
 end

 task mcscf

 scf
   vectors input H2.mos
   vectors output H2-5.05.mos
   noscf
 end

 tce
   2eorb
   2emet 13
   ccsd
   maxiter 300
   lshift 0.8
 end

# set tce:print_integrals T
# set tce:qorb 10
# set tce:qela 1
# set tce:qelb 1

 set tce:qducc T
 set tce:nactv 9
 set tce:nonhf T
 set tce:ducc_model 3

 set tce:printtol 0.02

 task tce
================================================================================

 Output coordinates in a.u. (scale by  1.000000000 to convert to a.u.)

  No.       Tag          Charge          X              Y              Z
 ---- ---------------- ---------- -------------- -------------- --------------
    1 H                    1.0000     0.00000000    -2.52500000     0.00000000
    2 H                    1.0000     0.00000000     2.52500000     0.00000000

 Vector    1  Occ=1.250893D+00  E=-3.029338D-01  Symmetry=a

 Vector    2  Occ=7.482167D-01  E=-1.965700D-01  Symmetry=a

 Vector    3  Occ=5.074996D-04  E=-2.639041D-04  Symmetry=a

 Vector    4  Occ=1.819539D-04  E=-1.029934D-04  Symmetry=a

 Vector    5  Occ=1.819539D-04  E=-1.029934D-04  Symmetry=a

 Vector    6  Occ=9.821340D-06  E=-6.244757D-06  Symmetry=a

 Vector    7  Occ=2.737193D-06  E=-2.626608D-06  Symmetry=a

 Vector    8  Occ=2.721186D-06  E=-2.425302D-06  Symmetry=a

 Vector    9  Occ=2.721186D-06  E=-2.425302D-06  Symmetry=a

 Vector   10  Occ=1.202114D-06  E=-1.571861D-06  Symmetry=a

 Vector   11  Occ=0.000000D+00  E= 4.446466D-01  Symmetry=a

 Vector   12  Occ=0.000000D+00  E= 7.195573D-01  Symmetry=a

 Vector   13  Occ=0.000000D+00  E= 7.970142D-01  Symmetry=a

 Vector   14  Occ=0.000000D+00  E= 1.190197D+00  Symmetry=a

 Vector   15  Occ=0.000000D+00  E= 1.190197D+00  Symmetry=a

 Vector   16  Occ=0.000000D+00  E= 1.712180D+00  Symmetry=a

 Vector   17  Occ=0.000000D+00  E= 1.800847D+00  Symmetry=a

 Vector   18  Occ=0.000000D+00  E= 1.800847D+00  Symmetry=a

 Vector   19  Occ=0.000000D+00  E= 1.889230D+00  Symmetry=a

 Vector   20  Occ=0.000000D+00  E= 2.015753D+00  Symmetry=a

         Total SCF energy =     -0.834507521362

 Vector    1  Occ=2.000000D+00  E=-3.029338D-01

 Vector    2  Occ=0.000000D+00  E=-1.965700D-01

 Vector    3  Occ=0.000000D+00  E=-2.639041D-04

 Vector    4  Occ=0.000000D+00  E=-1.029934D-04

 Vector    5  Occ=0.000000D+00  E=-1.029934D-04

 Vector    6  Occ=0.000000D+00  E=-6.244757D-06

 Vector    7  Occ=0.000000D+00  E=-2.626608D-06

 Vector    8  Occ=0.000000D+00  E=-2.425302D-06

 Vector    9  Occ=0.000000D+00  E=-2.425302D-06

 Vector   10  Occ=0.000000D+00  E=-1.571861D-06

 Vector   11  Occ=0.000000D+00  E= 4.446466D-01

 Vector   12  Occ=0.000000D+00  E= 7.195573D-01

       Multipole analysis of the density wrt the origin
       ------------------------------------------------

     L   x y z        total         open         nuclear
     -   - - -        -----         ----         -------
     0   0 0 0     -0.000000      0.000000      2.000000

     1   1 0 0     -0.000000      0.000000      0.000000
     1   0 1 0     -0.000000      0.000000      0.000000
     1   0 0 1      0.000000      0.000000      0.000000

     2   2 0 0     -2.156558      0.000000      0.000000
     2   1 1 0     -0.000000      0.000000      0.000000
     2   1 0 1      0.000000      0.000000      0.000000
     2   0 2 0     -1.192777      0.000000     12.751250
     2   0 1 1      0.000000      0.000000      0.000000

 CCSD total energy / hartree       =        -1.003147249894064
 Total times  cpu:       36.0s     wall:       39.0s
