============================== echo of input deck ==============================
 echo
 start H2
 title "H2"

 memory total 24 gb

 geometry units bohr
 symmetry c1
        H  0.00000000  0.00000000  0.00000000
        H  0.00000000  5.80  0.00000000
 end

 basis
   * library cc-pVQZ
 end

 mcscf
   active  10
   actelec 2
   multiplicity 1
   maxiter 40
   vectors input H2.mos
   vectors output H2.mos
 end

 task mcscf

 scf
   vectors input H2.mos
   vectors output H2-5.80.mos
   noscf
 end

 tce
   2eorb
   2emet 13
   ccsd
   maxiter 300
   lshift 0.8
 end

# set tce:print_integrals T
# set tce:qorb 10
# set tce:qela 1
# set tce:qelb 1

 set tce:qducc T
 set tce:nactv 9
 set tce:nonhf T
 set tce:ducc_model 3

 set tce:printtol 0.02

 task tce
================================================================================

 Output coordinates in a.u. (scale by  1.000000000 to convert to a.u.)

  No.       Tag          Charge          X              Y              Z
 ---- ---------------- ---------- -------------- -------------- --------------
    1 H                    1.0000     0.00000000    -2.90000000     0.00000000
    2 H                    1.0000     0.00000000     2.90000000     0.00000000

 Vector    1  Occ=1.140949D+00  E=-2.796695D-01  Symmetry=a

 Vector    2  Occ=8.587421D-01  E=-2.201313D-01  Symmetry=a

 Vector    3  Occ=1.946035D-04  E=-1.020512D-04  Symmetry=a

 Vector    4  Occ=5.590814D-05  E=-3.189803D-05  Symmetry=a

 Vector    5  Occ=5.590814D-05  E=-3.189803D-05  Symmetry=a

 Vector    6  Occ=1.705084D-06  E=-1.118119D-06  Symmetry=a

 Vector    7  Occ=5.794736D-07  E=-5.509284D-07  Symmetry=a

 Vector    8  Occ=2.749320D-07  E=-3.430203D-07  Symmetry=a

 Vector    9  Occ=2.109002D-07  E=-1.915167D-07  Symmetry=a

 Vector   10  Occ=2.109002D-07  E=-1.915167D-07  Symmetry=a

 Vector   11  Occ=0.000000D+00  E= 4.354199D-01  Symmetry=a

 Vector   12  Occ=0.000000D+00  E= 6.624951D-01  Symmetry=a

 Vector   13  Occ=0.000000D+00  E= 8.125451D-01  Symmetry=a

 Vector   14  Occ=0.000000D+00  E= 1.154786D+00  Symmetry=a

 Vector   15  Occ=0.000000D+00  E= 1.154786D+00  Symmetry=a

 Vector   16  Occ=0.000000D+00  E= 1.750410D+00  Symmetry=a

 Vector   17  Occ=0.000000D+00  E= 1.814251D+00  Symmetry=a

 Vector   18  Occ=0.000000D+00  E= 1.814251D+00  Symmetry=a

 Vector   19  Occ=0.000000D+00  E= 1.858482D+00  Symmetry=a

 Vector   20  Occ=0.000000D+00  E= 2.038114D+00  Symmetry=a

         Total SCF energy =     -0.802903184819

 Vector    1  Occ=2.000000D+00  E=-2.796695D-01

 Vector    2  Occ=0.000000D+00  E=-2.201313D-01

 Vector    3  Occ=0.000000D+00  E=-1.020512D-04

 Vector    4  Occ=0.000000D+00  E=-3.189803D-05

 Vector    5  Occ=0.000000D+00  E=-3.189803D-05

 Vector    6  Occ=0.000000D+00  E=-1.118119D-06

 Vector    7  Occ=0.000000D+00  E=-5.509284D-07

 Vector    8  Occ=0.000000D+00  E=-3.430203D-07

 Vector    9  Occ=0.000000D+00  E=-1.915167D-07

 Vector   10  Occ=0.000000D+00  E=-1.915167D-07

 Vector   11  Occ=0.000000D+00  E= 4.354199D-01

 Vector   12  Occ=0.000000D+00  E= 6.624951D-01

       Multipole analysis of the density wrt the origin
       ------------------------------------------------

     L   x y z        total         open         nuclear
     -   - - -        -----         ----         -------
     0   0 0 0     -0.000000      0.000000      2.000000

     1   1 0 0     -0.000000      0.000000      0.000000
     1   0 1 0     -0.000000      0.000000      0.000000
     1   0 0 1      0.000000      0.000000      0.000000

     2   2 0 0     -2.104729      0.000000      0.000000
     2   1 1 0     -0.000000      0.000000      0.000000
     2   1 0 1      0.000000      0.000000      0.000000
     2   0 2 0     -1.376828      0.000000     16.820000
     2   0 1 1      0.000000      0.000000      0.000000

 CCSD total energy / hartree       =        -1.000883445157067
 Total times  cpu:       35.5s     wall:       38.6s
