============================== echo of input deck ==============================
 echo
 start H2
 title "H2"

 memory total 24 gb

 geometry units bohr
 symmetry c1
        H  0.00000000  0.00000000  0.00000000
        H  0.00000000  6.50  0.00000000
 end

 basis
   * library cc-pVQZ
 end

 mcscf
   active  10
   actelec 2
   multiplicity 1
   maxiter 40
   vectors input H2.mos
   vectors output H2.mos
 end

 task mcscf

 scf
   vectors input H2.mos
   vectors output H2-6.50.mos
   noscf
 end

 tce
   2eorb
   2emet 13
   ccsd
   maxiter 300
   lshift 0.8
 end

# set tce:print_integrals T
# set tce:qorb 10
# set tce:qela 1
# set tce:qelb 1

 set tce:qducc T
 set tce:nactv 9
 set tce:nonhf T
 set tce:ducc_model 3

 set tce:printtol 0.02

 task tce
================================================================================

 Output coordinates in a.u. (scale by  1.000000000 to convert to a.u.)

  No.       Tag          Charge          X              Y              Z
 ---- ---------------- ---------- -------------- -------------- --------------
    1 H                    1.0000     0.00000000    -3.25000000     0.00000000
    2 H                    1.0000     0.00000000     3.25000000     0.00000000

 Vector    1  Occ=1.080926D+00  E=-2.670707D-01  Symmetry=a

 Vector    2  Occ=9.189572D-01  E=-2.328285D-01  Symmetry=a

 Vector    3  Occ=7.650958D-05  E=-4.107352D-05  Symmetry=a

 Vector    4  Occ=1.987219D-05  E=-1.137934D-05  Symmetry=a

 Vector    5  Occ=1.987219D-05  E=-1.137934D-05  Symmetry=a

 Vector    6  Occ=3.142784D-07  E=-2.143081D-07  Symmetry=a

 Vector    7  Occ=1.385319D-07  E=-1.293834D-07  Symmetry=a

 Vector    8  Occ=6.160195D-08  E=-7.387810D-08  Symmetry=a

 Vector    9  Occ=5.172400D-10  E=-4.755745D-10  Symmetry=a

 Vector   10  Occ=5.172400D-10  E=-4.755745D-10  Symmetry=a

 Vector   11  Occ=0.000000D+00  E= 4.222135D-01  Symmetry=a

 Vector   12  Occ=0.000000D+00  E= 6.298210D-01  Symmetry=a

 Vector   13  Occ=0.000000D+00  E= 8.318451D-01  Symmetry=a

 Vector   14  Occ=0.000000D+00  E= 1.137565D+00  Symmetry=a

 Vector   15  Occ=0.000000D+00  E= 1.137565D+00  Symmetry=a

 Vector   16  Occ=0.000000D+00  E= 1.763644D+00  Symmetry=a

 Vector   17  Occ=0.000000D+00  E= 1.827445D+00  Symmetry=a

 Vector   18  Occ=0.000000D+00  E= 1.827445D+00  Symmetry=a

 Vector   19  Occ=0.000000D+00  E= 1.884539D+00  Symmetry=a

 Vector   20  Occ=0.000000D+00  E= 2.045330D+00  Symmetry=a

         Total SCF energy =     -0.782150158021

 Vector    1  Occ=2.000000D+00  E=-2.670707D-01

 Vector    2  Occ=0.000000D+00  E=-2.328285D-01

 Vector    3  Occ=0.000000D+00  E=-4.107352D-05

 Vector    4  Occ=0.000000D+00  E=-1.137934D-05

 Vector    5  Occ=0.000000D+00  E=-1.137934D-05

 Vector    6  Occ=0.000000D+00  E=-2.143081D-07

 Vector    7  Occ=0.000000D+00  E=-1.293834D-07

 Vector    8  Occ=0.000000D+00  E=-7.387810D-08

 Vector    9  Occ=0.000000D+00  E=-4.755745D-10

 Vector   10  Occ=0.000000D+00  E=-4.755745D-10

 Vector   11  Occ=0.000000D+00  E= 4.222135D-01

 Vector   12  Occ=0.000000D+00  E= 6.298210D-01

       Multipole analysis of the density wrt the origin
       ------------------------------------------------

     L   x y z        total         open         nuclear
     -   - - -        -----         ----         -------
     0   0 0 0     -0.000000      0.000000      2.000000

     1   1 0 0     -0.000000      0.000000      0.000000
     1   0 1 0     -0.000000      0.000000      0.000000
     1   0 0 1      0.000000      0.000000      0.000000

     2   2 0 0     -2.067637      0.000000      0.000000
     2   1 1 0     -0.000000      0.000000      0.000000
     2   1 0 1      0.000000      0.000000      0.000000
     2   0 2 0     -1.532575      0.000000     21.125000
     2   0 1 1      0.000000      0.000000      0.000000

 CCSD total energy / hartree       =        -1.000219401670234
 Total times  cpu:       36.7s     wall:       40.3s
