============================== echo of input deck ==============================
 echo
 start H2
 title "H2"

 memory total 24 gb

 geometry units bohr
 symmetry c1
        H  0.00000000  0.00000000  0.00000000
        H  0.00000000  8.00  0.00000000
 end

 basis
   * library cc-pVQZ
 end

 mcscf
   active  10
   actelec 2
   multiplicity 1
   maxiter 40
   vectors input H2.mos
   vectors output H2.mos
 end

 task mcscf

 scf
   vectors input H2.mos
   vectors output H2-8.00.mos
   noscf
 end

 tce
   2eorb
   2emet 13
   ccsd
   maxiter 300
   lshift 0.8
 end

# set tce:print_integrals T
# set tce:qorb 10
# set tce:qela 1
# set tce:qelb 1

 set tce:qducc T
 set tce:nactv 9
 set tce:nonhf T
 set tce:ducc_model 3

 set tce:printtol 0.02

 task tce
================================================================================

 Output coordinates in a.u. (scale by  1.000000000 to convert to a.u.)

  No.       Tag          Charge          X              Y              Z
 ---- ---------------- ---------- -------------- -------------- --------------
    1 H                    1.0000     0.00000000    -4.00000000     0.00000000
    2 H                    1.0000     0.00000000     4.00000000     0.00000000

 Vector    1  Occ=1.024133D+00  E=-2.551328D-01  Symmetry=a

 Vector    2  Occ=9.758483D-01  E=-2.448085D-01  Symmetry=a

 Vector    3  Occ=1.275945D-05  E=-7.061937D-06  Symmetry=a

 Vector    4  Occ=3.065584D-06  E=-1.753554D-06  Symmetry=a

 Vector    5  Occ=3.065584D-06  E=-1.753554D-06  Symmetry=a

 Vector    6  Occ=7.355370D-08  E=-6.672729D-08  Symmetry=a

 Vector    7  Occ=7.355370D-08  E=-6.672729D-08  Symmetry=a

 Vector    8  Occ=6.613606D-09  E=-5.078928D-09  Symmetry=a

 Vector    9  Occ=5.141053D-09  E=-4.708561D-09  Symmetry=a

 Vector   10  Occ=1.764797D-09  E=-1.944723D-09  Symmetry=a

 Vector   11  Occ=0.000000D+00  E= 4.357706D-01  Symmetry=a

 Vector   12  Occ=0.000000D+00  E= 5.852620D-01  Symmetry=a

 Vector   13  Occ=0.000000D+00  E= 8.004013D-01  Symmetry=a

 Vector   14  Occ=0.000000D+00  E= 1.134367D+00  Symmetry=a

 Vector   15  Occ=0.000000D+00  E= 1.134367D+00  Symmetry=a

 Vector   16  Occ=0.000000D+00  E= 1.733650D+00  Symmetry=a

 Vector   17  Occ=0.000000D+00  E= 1.839830D+00  Symmetry=a

 Vector   18  Occ=0.000000D+00  E= 1.839830D+00  Symmetry=a

 Vector   19  Occ=0.000000D+00  E= 1.933544D+00  Symmetry=a

 Vector   20  Occ=0.000000D+00  E= 2.051702D+00  Symmetry=a

         Total SCF energy =     -0.755633448850

 Vector    1  Occ=2.000000D+00  E=-2.551328D-01

 Vector    2  Occ=0.000000D+00  E=-2.448085D-01

 Vector    3  Occ=0.000000D+00  E=-7.061937D-06

 Vector    4  Occ=0.000000D+00  E=-1.753554D-06

 Vector    5  Occ=0.000000D+00  E=-1.753554D-06

 Vector    6  Occ=0.000000D+00  E=-6.672729D-08

 Vector    7  Occ=0.000000D+00  E=-6.672729D-08

 Vector    8  Occ=0.000000D+00  E=-5.078928D-09

 Vector    9  Occ=0.000000D+00  E=-4.708561D-09

 Vector   10  Occ=0.000000D+00  E=-1.944723D-09

 Vector   11  Occ=0.000000D+00  E= 4.357706D-01

 Vector   12  Occ=0.000000D+00  E= 5.852620D-01

       Multipole analysis of the density wrt the origin
       ------------------------------------------------

     L   x y z        total         open         nuclear
     -   - - -        -----         ----         -------
     0   0 0 0     -0.000000      0.000000      2.000000

     1   1 0 0     -0.000000      0.000000      0.000000
     1   0 1 0     -0.000000      0.000000      0.000000
     1   0 0 1      0.000000      0.000000      0.000000

     2   2 0 0     -2.023284      0.000000      0.000000
     2   1 1 0     -0.000000      0.000000      0.000000
     2   1 0 1      0.000000      0.000000      0.000000
     2   0 2 0     -1.774616      0.000000     32.000000
     2   0 1 1      0.000000      0.000000      0.000000

 CCSD total energy / hartree       =        -0.999929049422069
 Total times  cpu:       36.2s     wall:       39.3s
