============================== echo of input deck ==============================
 echo
 start Li2
 title "Li2"

 memory total 24 gb

 geometry units bohr
 symmetry c1
        Li  0.00000000  0.00000000  0.00000000
        Li  0.00000000  10.9  0.00000000
 end

 basis
   * library cc-pVTZ
 end

 mcscf
   active  4
   actelec 6
   multiplicity 1
   maxiter 40
   vectors input Li2.mos
   vectors output Li2.mos
 end

 task mcscf

 scf
   vectors input Li2.mos
   vectors output Li2-10.9.mos
   noscf
 end

 tce
   2eorb
   2emet 13
   ccsd
   maxiter 300
   lshift 0.3
 end

 set tce:print_integrals T
 set tce:qorb 4
 set tce:qela 3
 set tce:qelb 3

# set tce:qducc T
# set tce:nactv 1
# set tce:nonhf T
# set tce:ducc_model 3

 set tce:printtol 0.02

 task tce
================================================================================

 Output coordinates in a.u. (scale by  1.000000000 to convert to a.u.)

  No.       Tag          Charge          X              Y              Z
 ---- ---------------- ---------- -------------- -------------- --------------
    1 Li                   3.0000     0.00000000    -5.45000000     0.00000000
    2 Li                   3.0000     0.00000000     5.45000000     0.00000000

 Vector    1  Occ=2.000000D+00  E=-2.478393D+00  Symmetry=a

 Vector    2  Occ=2.000000D+00  E=-2.478393D+00  Symmetry=a

 Vector    3  Occ=1.234431D+00  E=-1.169967D-01  Symmetry=a

 Vector    4  Occ=7.655693D-01  E=-7.871600D-02  Symmetry=a

 Vector    5  Occ=0.000000D+00  E= 2.666075D-02  Symmetry=a

 Vector    6  Occ=0.000000D+00  E= 2.666075D-02  Symmetry=a

 Vector    7  Occ=0.000000D+00  E= 3.150228D-02  Symmetry=a

 Vector    8  Occ=0.000000D+00  E= 4.136165D-02  Symmetry=a

 Vector    9  Occ=0.000000D+00  E= 4.136165D-02  Symmetry=a

 Vector   10  Occ=0.000000D+00  E= 4.787292D-02  Symmetry=a

 Vector   11  Occ=0.000000D+00  E= 1.017757D-01  Symmetry=a

 Vector   12  Occ=0.000000D+00  E= 1.119824D-01  Symmetry=a

 Vector   13  Occ=0.000000D+00  E= 1.180745D-01  Symmetry=a

 Vector   14  Occ=0.000000D+00  E= 1.180745D-01  Symmetry=a

         Total SCF energy =    -14.809611154862

 Vector    2  Occ=2.000000D+00  E=-2.478393D+00

 Vector    3  Occ=2.000000D+00  E=-1.169967D-01

 Vector    4  Occ=0.000000D+00  E=-7.871600D-02

 Vector    5  Occ=0.000000D+00  E= 2.666075D-02

 Vector    6  Occ=0.000000D+00  E= 2.666075D-02

 Vector    7  Occ=0.000000D+00  E= 3.150228D-02

 Vector    8  Occ=0.000000D+00  E= 4.136165D-02

 Vector    9  Occ=0.000000D+00  E= 4.136165D-02

 Vector   10  Occ=0.000000D+00  E= 4.787292D-02

 Vector   11  Occ=0.000000D+00  E= 1.017757D-01

 Vector   12  Occ=0.000000D+00  E= 1.119824D-01

 Vector   13  Occ=0.000000D+00  E= 1.180745D-01

 Vector   14  Occ=0.000000D+00  E= 1.180745D-01

 Vector   15  Occ=0.000000D+00  E= 1.222143D-01

 Vector   16  Occ=0.000000D+00  E= 1.233562D-01

 Vector   17  Occ=0.000000D+00  E= 1.233562D-01

 Vector   18  Occ=0.000000D+00  E= 1.350105D-01

 Vector   19  Occ=0.000000D+00  E= 2.088868D-01

 Vector   20  Occ=0.000000D+00  E= 2.088868D-01

 Vector   21  Occ=0.000000D+00  E= 2.205303D-01

 Vector   22  Occ=0.000000D+00  E= 2.246840D-01

 Vector   23  Occ=0.000000D+00  E= 2.246840D-01

 Vector   24  Occ=0.000000D+00  E= 2.320767D-01

 Vector   25  Occ=0.000000D+00  E= 2.320767D-01

 Vector   26  Occ=0.000000D+00  E= 2.577771D-01

 Vector   27  Occ=0.000000D+00  E= 2.577771D-01

 Vector   28  Occ=0.000000D+00  E= 3.026842D-01

 Vector   29  Occ=0.000000D+00  E= 3.608532D-01

 Vector   30  Occ=0.000000D+00  E= 3.608532D-01

 Vector   31  Occ=0.000000D+00  E= 3.648670D-01

 Vector   32  Occ=0.000000D+00  E= 3.726530D-01

 Vector   33  Occ=0.000000D+00  E= 3.726530D-01

 Vector   34  Occ=0.000000D+00  E= 3.944285D-01

 Vector   35  Occ=0.000000D+00  E= 3.978608D-01

 Vector   36  Occ=0.000000D+00  E= 4.473967D-01

 Vector   37  Occ=0.000000D+00  E= 7.130573D-01

       Multipole analysis of the density wrt the origin
       ------------------------------------------------

     L   x y z        total         open         nuclear
     -   - - -        -----         ----         -------
     0   0 0 0     -0.000000      0.000000      6.000000

     1   1 0 0     -0.000000      0.000000      0.000000
     1   0 1 0     -0.000000      0.000000      0.000000
     1   0 0 1      0.000000      0.000000      0.000000

     2   2 0 0    -12.758487      0.000000      0.000000
     2   1 1 0     -0.000000      0.000000      0.000000
     2   1 0 1      0.000000      0.000000      0.000000
     2   0 2 0     -7.327197      0.000000    178.215000
     2   0 1 1      0.000000      0.000000      0.000000

 CCSD total energy / hartree       =       -14.866068276683732
 Total times  cpu:        2.9s     wall:        3.3s
