============================== echo of input deck ==============================
 echo
 start Li2
 title "Li2"

 memory total 24 gb

 geometry units bohr
 symmetry c1
        Li  0.00000000  0.00000000  0.00000000
        Li  0.00000000  4.9  0.00000000
 end

 basis
   * library cc-pVTZ
 end

 mcscf
   active  4
   actelec 6
   multiplicity 1
   maxiter 40
   vectors input Li2.mos
   vectors output Li2.mos
 end

 task mcscf

 scf
   vectors input Li2.mos
   vectors output Li2-4.9.mos
   noscf
 end

 tce
   2eorb
   2emet 13
   ccsd
   maxiter 300
   lshift 0.3
 end

 set tce:print_integrals T
 set tce:qorb 4
 set tce:qela 3
 set tce:qelb 3

# set tce:qducc T
# set tce:nactv 1
# set tce:nonhf T
# set tce:ducc_model 3

 set tce:printtol 0.02

 task tce
================================================================================

 Output coordinates in a.u. (scale by  1.000000000 to convert to a.u.)

  No.       Tag          Charge          X              Y              Z
 ---- ---------------- ---------- -------------- -------------- --------------
    1 Li                   3.0000     0.00000000    -2.45000000     0.00000000
    2 Li                   3.0000     0.00000000     2.45000000     0.00000000

 Vector    1  Occ=1.999996D+00  E=-2.453550D+00  Symmetry=a

 Vector    2  Occ=1.999995D+00  E=-2.453096D+00  Symmetry=a

 Vector    3  Occ=1.918865D+00  E=-1.858894D-01  Symmetry=a

 Vector    4  Occ=8.114443D-02  E=-1.256955D-02  Symmetry=a

 Vector    5  Occ=0.000000D+00  E= 2.582688D-02  Symmetry=a

 Vector    6  Occ=0.000000D+00  E= 2.582688D-02  Symmetry=a

 Vector    7  Occ=0.000000D+00  E= 3.860413D-02  Symmetry=a

 Vector    8  Occ=0.000000D+00  E= 4.469643D-02  Symmetry=a

 Vector    9  Occ=0.000000D+00  E= 5.555081D-02  Symmetry=a

 Vector   10  Occ=0.000000D+00  E= 5.555081D-02  Symmetry=a

 Vector   11  Occ=0.000000D+00  E= 9.636921D-02  Symmetry=a

 Vector   12  Occ=0.000000D+00  E= 1.069387D-01  Symmetry=a

 Vector   13  Occ=0.000000D+00  E= 1.069387D-01  Symmetry=a

 Vector   14  Occ=0.000000D+00  E= 1.243434D-01  Symmetry=a

         Total SCF energy =    -14.869953640000

 Vector    2  Occ=2.000000D+00  E=-2.453096D+00

 Vector    3  Occ=2.000000D+00  E=-1.858894D-01

 Vector    4  Occ=0.000000D+00  E=-1.256955D-02

 Vector    5  Occ=0.000000D+00  E= 2.582688D-02

 Vector    6  Occ=0.000000D+00  E= 2.582688D-02

 Vector    7  Occ=0.000000D+00  E= 3.860413D-02

 Vector    8  Occ=0.000000D+00  E= 4.469643D-02

 Vector    9  Occ=0.000000D+00  E= 5.555081D-02

 Vector   10  Occ=0.000000D+00  E= 5.555081D-02

 Vector   11  Occ=0.000000D+00  E= 9.636921D-02

 Vector   12  Occ=0.000000D+00  E= 1.069387D-01

 Vector   13  Occ=0.000000D+00  E= 1.069387D-01

 Vector   14  Occ=0.000000D+00  E= 1.243434D-01

 Vector   15  Occ=0.000000D+00  E= 1.516340D-01

 Vector   16  Occ=0.000000D+00  E= 1.570629D-01

 Vector   17  Occ=0.000000D+00  E= 1.570629D-01

 Vector   18  Occ=0.000000D+00  E= 1.936490D-01

 Vector   19  Occ=0.000000D+00  E= 2.152550D-01

 Vector   20  Occ=0.000000D+00  E= 2.152550D-01

 Vector   21  Occ=0.000000D+00  E= 2.572595D-01

 Vector   22  Occ=0.000000D+00  E= 2.572595D-01

 Vector   23  Occ=0.000000D+00  E= 2.798020D-01

 Vector   24  Occ=0.000000D+00  E= 2.798020D-01

 Vector   25  Occ=0.000000D+00  E= 3.058120D-01

 Vector   26  Occ=0.000000D+00  E= 3.414545D-01

 Vector   27  Occ=0.000000D+00  E= 3.613383D-01

 Vector   28  Occ=0.000000D+00  E= 3.613383D-01

 Vector   29  Occ=0.000000D+00  E= 3.667728D-01

 Vector   30  Occ=0.000000D+00  E= 3.667728D-01

 Vector   31  Occ=0.000000D+00  E= 3.831880D-01

 Vector   32  Occ=0.000000D+00  E= 3.959810D-01

 Vector   33  Occ=0.000000D+00  E= 3.959810D-01

 Vector   34  Occ=0.000000D+00  E= 4.179756D-01

 Vector   35  Occ=0.000000D+00  E= 4.995736D-01

 Vector   36  Occ=0.000000D+00  E= 5.702143D-01

       Multipole analysis of the density wrt the origin
       ------------------------------------------------

     L   x y z        total         open         nuclear
     -   - - -        -----         ----         -------
     0   0 0 0     -0.000000      0.000000      6.000000

     1   1 0 0      0.000004      0.000000      0.000000
     1   0 1 0     -0.000000      0.000000      0.000000
     1   0 0 1      0.000005      0.000000      0.000000

     2   2 0 0    -11.944342      0.000000      0.000000
     2   1 1 0     -0.000000      0.000000      0.000000
     2   1 0 1      0.000000      0.000000      0.000000
     2   0 2 0     -3.439948      0.000000     36.015000
     2   0 1 1      0.000000      0.000000      0.000000

 CCSD total energy / hartree       =       -14.879127080843320
 Total times  cpu:        3.2s     wall:        3.7s
