============================== echo of input deck ==============================
 echo
 start Li2
 title "Li2"

 memory total 24 gb

 geometry units bohr
 symmetry c1
        Li  0.00000000  0.00000000  0.00000000
        Li  0.00000000  7.4  0.00000000
 end

 basis
   * library cc-pVTZ
 end

 mcscf
   active  4
   actelec 6
   multiplicity 1
   maxiter 40
   vectors input Li2.mos
   vectors output Li2.mos
 end

 task mcscf

 scf
   vectors input Li2.mos
   vectors output Li2-7.4.mos
   noscf
 end

 tce
   2eorb
   2emet 13
   ccsd
   maxiter 300
   lshift 0.3
 end

 set tce:print_integrals T
 set tce:qorb 4
 set tce:qela 3
 set tce:qelb 3

# set tce:qducc T
# set tce:nactv 1
# set tce:nonhf T
# set tce:ducc_model 3

 set tce:printtol 0.02

 task tce
================================================================================

 Output coordinates in a.u. (scale by  1.000000000 to convert to a.u.)

  No.       Tag          Charge          X              Y              Z
 ---- ---------------- ---------- -------------- -------------- --------------
    1 Li                   3.0000     0.00000000    -3.70000000     0.00000000
    2 Li                   3.0000     0.00000000     3.70000000     0.00000000

 Vector    1  Occ=1.999998D+00  E=-2.473736D+00  Symmetry=a

 Vector    2  Occ=1.999998D+00  E=-2.473732D+00  Symmetry=a

 Vector    3  Occ=1.704395D+00  E=-1.561473D-01  Symmetry=a

 Vector    4  Occ=2.956088D-01  E=-3.575166D-02  Symmetry=a

 Vector    5  Occ=0.000000D+00  E= 2.626988D-02  Symmetry=a

 Vector    6  Occ=0.000000D+00  E= 2.626988D-02  Symmetry=a

 Vector    7  Occ=0.000000D+00  E= 3.480027D-02  Symmetry=a

 Vector    8  Occ=0.000000D+00  E= 4.733776D-02  Symmetry=a

 Vector    9  Occ=0.000000D+00  E= 4.908540D-02  Symmetry=a

 Vector   10  Occ=0.000000D+00  E= 4.908540D-02  Symmetry=a

 Vector   11  Occ=0.000000D+00  E= 1.011259D-01  Symmetry=a

 Vector   12  Occ=0.000000D+00  E= 1.120648D-01  Symmetry=a

 Vector   13  Occ=0.000000D+00  E= 1.135686D-01  Symmetry=a

 Vector   14  Occ=0.000000D+00  E= 1.135686D-01  Symmetry=a

         Total SCF energy =    -14.851181751923

 Vector    2  Occ=2.000000D+00  E=-2.473732D+00

 Vector    3  Occ=2.000000D+00  E=-1.561473D-01

 Vector    4  Occ=0.000000D+00  E=-3.575166D-02

 Vector    5  Occ=0.000000D+00  E= 2.626988D-02

 Vector    6  Occ=0.000000D+00  E= 2.626988D-02

 Vector    7  Occ=0.000000D+00  E= 3.480027D-02

 Vector    8  Occ=0.000000D+00  E= 4.733776D-02

 Vector    9  Occ=0.000000D+00  E= 4.908540D-02

 Vector   10  Occ=0.000000D+00  E= 4.908540D-02

 Vector   11  Occ=0.000000D+00  E= 1.011259D-01

 Vector   12  Occ=0.000000D+00  E= 1.120648D-01

 Vector   13  Occ=0.000000D+00  E= 1.135686D-01

 Vector   14  Occ=0.000000D+00  E= 1.135686D-01

 Vector   15  Occ=0.000000D+00  E= 1.352285D-01

 Vector   16  Occ=0.000000D+00  E= 1.352285D-01

 Vector   17  Occ=0.000000D+00  E= 1.441587D-01

 Vector   18  Occ=0.000000D+00  E= 1.660856D-01

 Vector   19  Occ=0.000000D+00  E= 2.157701D-01

 Vector   20  Occ=0.000000D+00  E= 2.157701D-01

 Vector   21  Occ=0.000000D+00  E= 2.211185D-01

 Vector   22  Occ=0.000000D+00  E= 2.211185D-01

 Vector   23  Occ=0.000000D+00  E= 2.526479D-01

 Vector   24  Occ=0.000000D+00  E= 2.526479D-01

 Vector   25  Occ=0.000000D+00  E= 2.818054D-01

 Vector   26  Occ=0.000000D+00  E= 3.146268D-01

 Vector   27  Occ=0.000000D+00  E= 3.146268D-01

 Vector   28  Occ=0.000000D+00  E= 3.609406D-01

 Vector   29  Occ=0.000000D+00  E= 3.688986D-01

 Vector   30  Occ=0.000000D+00  E= 3.688986D-01

 Vector   31  Occ=0.000000D+00  E= 3.823084D-01

 Vector   32  Occ=0.000000D+00  E= 3.824451D-01

 Vector   33  Occ=0.000000D+00  E= 3.824451D-01

 Vector   34  Occ=0.000000D+00  E= 3.988284D-01

 Vector   35  Occ=0.000000D+00  E= 4.224207D-01

 Vector   36  Occ=0.000000D+00  E= 4.899384D-01

 Vector   37  Occ=0.000000D+00  E= 6.720213D-01

       Multipole analysis of the density wrt the origin
       ------------------------------------------------

     L   x y z        total         open         nuclear
     -   - - -        -----         ----         -------
     0   0 0 0     -0.000000      0.000000      6.000000

     1   1 0 0     -0.000012      0.000000      0.000000
     1   0 1 0      0.000000      0.000000     -0.000000
     1   0 0 1     -0.000018      0.000000      0.000000

     2   2 0 0    -12.836155      0.000000      0.000000
     2   1 1 0     -0.000000      0.000000      0.000000
     2   1 0 1     -0.000000      0.000000      0.000000
     2   0 2 0     -2.799260      0.000000     82.140000
     2   0 1 1      0.000000      0.000000      0.000000

 CCSD total energy / hartree       =       -14.874287445393655
 Total times  cpu:        3.2s     wall:        3.7s
