============================== echo of input deck ==============================
 echo
 start Li2
 title "Li2"

 memory total 24 gb

 geometry units bohr
 symmetry c1
        Li  0.00000000  0.00000000  0.00000000
        Li  0.00000000  8.2  0.00000000
 end

 basis
   * library cc-pVTZ
 end

 mcscf
   active  4
   actelec 6
   multiplicity 1
   maxiter 40
   vectors input Li2.mos
   vectors output Li2.mos
 end

 task mcscf

 scf
   vectors input Li2.mos
   vectors output Li2-8.2.mos
   noscf
 end

 tce
   2eorb
   2emet 13
   ccsd
   maxiter 300
   lshift 0.3
 end

 set tce:print_integrals T
 set tce:qorb 4
 set tce:qela 3
 set tce:qelb 3

# set tce:qducc T
# set tce:nactv 1
# set tce:nonhf T
# set tce:ducc_model 3

 set tce:printtol 0.02

 task tce
================================================================================

 Output coordinates in a.u. (scale by  1.000000000 to convert to a.u.)

  No.       Tag          Charge          X              Y              Z
 ---- ---------------- ---------- -------------- -------------- --------------
    1 Li                   3.0000     0.00000000    -4.10000000     0.00000000
    2 Li                   3.0000     0.00000000     4.10000000     0.00000000

 Vector    1  Occ=1.999999D+00  E=-2.476968D+00  Symmetry=a

 Vector    2  Occ=1.999999D+00  E=-2.476967D+00  Symmetry=a

 Vector    3  Occ=1.586353D+00  E=-1.456241D-01  Symmetry=a

 Vector    4  Occ=4.136499D-01  E=-4.723843D-02  Symmetry=a

 Vector    5  Occ=0.000000D+00  E= 2.607916D-02  Symmetry=a

 Vector    6  Occ=0.000000D+00  E= 2.607916D-02  Symmetry=a

 Vector    7  Occ=0.000000D+00  E= 3.402842D-02  Symmetry=a

 Vector    8  Occ=0.000000D+00  E= 4.702237D-02  Symmetry=a

 Vector    9  Occ=0.000000D+00  E= 4.702237D-02  Symmetry=a

 Vector   10  Occ=0.000000D+00  E= 4.811537D-02  Symmetry=a

 Vector   11  Occ=0.000000D+00  E= 1.026745D-01  Symmetry=a

 Vector   12  Occ=0.000000D+00  E= 1.094690D-01  Symmetry=a

 Vector   13  Occ=0.000000D+00  E= 1.146239D-01  Symmetry=a

 Vector   14  Occ=0.000000D+00  E= 1.146239D-01  Symmetry=a

         Total SCF energy =    -14.840531186794

 Vector    2  Occ=2.000000D+00  E=-2.476967D+00

 Vector    3  Occ=2.000000D+00  E=-1.456241D-01

 Vector    4  Occ=0.000000D+00  E=-4.723843D-02

 Vector    5  Occ=0.000000D+00  E= 2.607916D-02

 Vector    6  Occ=0.000000D+00  E= 2.607916D-02

 Vector    7  Occ=0.000000D+00  E= 3.402842D-02

 Vector    8  Occ=0.000000D+00  E= 4.702237D-02

 Vector    9  Occ=0.000000D+00  E= 4.702237D-02

 Vector   10  Occ=0.000000D+00  E= 4.811537D-02

 Vector   11  Occ=0.000000D+00  E= 1.026745D-01

 Vector   12  Occ=0.000000D+00  E= 1.094690D-01

 Vector   13  Occ=0.000000D+00  E= 1.146239D-01

 Vector   14  Occ=0.000000D+00  E= 1.146239D-01

 Vector   15  Occ=0.000000D+00  E= 1.306899D-01

 Vector   16  Occ=0.000000D+00  E= 1.306899D-01

 Vector   17  Occ=0.000000D+00  E= 1.388957D-01

 Vector   18  Occ=0.000000D+00  E= 1.554481D-01

 Vector   19  Occ=0.000000D+00  E= 2.124757D-01

 Vector   20  Occ=0.000000D+00  E= 2.124757D-01

 Vector   21  Occ=0.000000D+00  E= 2.171832D-01

 Vector   22  Occ=0.000000D+00  E= 2.171832D-01

 Vector   23  Occ=0.000000D+00  E= 2.457300D-01

 Vector   24  Occ=0.000000D+00  E= 2.457300D-01

 Vector   25  Occ=0.000000D+00  E= 2.689998D-01

 Vector   26  Occ=0.000000D+00  E= 2.997037D-01

 Vector   27  Occ=0.000000D+00  E= 2.997037D-01

 Vector   28  Occ=0.000000D+00  E= 3.430283D-01

 Vector   29  Occ=0.000000D+00  E= 3.660628D-01

 Vector   30  Occ=0.000000D+00  E= 3.660628D-01

 Vector   31  Occ=0.000000D+00  E= 3.793348D-01

 Vector   32  Occ=0.000000D+00  E= 3.793348D-01

 Vector   33  Occ=0.000000D+00  E= 3.832826D-01

 Vector   34  Occ=0.000000D+00  E= 3.994954D-01

 Vector   35  Occ=0.000000D+00  E= 4.199438D-01

 Vector   36  Occ=0.000000D+00  E= 4.825990D-01

 Vector   37  Occ=0.000000D+00  E= 6.779298D-01

       Multipole analysis of the density wrt the origin
       ------------------------------------------------

     L   x y z        total         open         nuclear
     -   - - -        -----         ----         -------
     0   0 0 0     -0.000000      0.000000      6.000000

     1   1 0 0     -0.000000      0.000000      0.000000
     1   0 1 0      0.000000      0.000000      0.000000
     1   0 0 1      0.000000      0.000000      0.000000

     2   2 0 0    -12.914489      0.000000      0.000000
     2   1 1 0     -0.000000      0.000000      0.000000
     2   1 0 1      0.000000      0.000000      0.000000
     2   0 2 0     -3.622472      0.000000    100.860000
     2   0 1 1      0.000000      0.000000      0.000000

 CCSD total energy / hartree       =       -14.870912150671208
 Total times  cpu:        3.6s     wall:        4.2s
