============================== echo of input deck ==============================
 echo
 start Li2
 title "Li2"

 memory total 24 gb

 geometry units bohr
 symmetry c1
        Li  0.00000000  0.00000000  0.00000000
        Li  0.00000000  8.4  0.00000000
 end

 basis
   * library cc-pVTZ
 end

 mcscf
   active  4
   actelec 6
   multiplicity 1
   maxiter 40
   vectors input Li2.mos
   vectors output Li2.mos
 end

 task mcscf

 scf
   vectors input Li2.mos
   vectors output Li2-8.4.mos
   noscf
 end

 tce
   2eorb
   2emet 13
   ccsd
   maxiter 300
   lshift 0.3
 end

 set tce:print_integrals T
 set tce:qorb 4
 set tce:qela 3
 set tce:qelb 3

# set tce:qducc T
# set tce:nactv 1
# set tce:nonhf T
# set tce:ducc_model 3

 set tce:printtol 0.02

 task tce
================================================================================

 Output coordinates in a.u. (scale by  1.000000000 to convert to a.u.)

  No.       Tag          Charge          X              Y              Z
 ---- ---------------- ---------- -------------- -------------- --------------
    1 Li                   3.0000     0.00000000    -4.20000000     0.00000000
    2 Li                   3.0000     0.00000000     4.20000000     0.00000000

 Vector    1  Occ=1.999999D+00  E=-2.477443D+00  Symmetry=a

 Vector    2  Occ=1.999999D+00  E=-2.477443D+00  Symmetry=a

 Vector    3  Occ=1.555620D+00  E=-1.430195D-01  Symmetry=a

 Vector    4  Occ=4.443823D-01  E=-5.013535D-02  Symmetry=a

 Vector    5  Occ=0.000000D+00  E= 2.605746D-02  Symmetry=a

 Vector    6  Occ=0.000000D+00  E= 2.605746D-02  Symmetry=a

 Vector    7  Occ=0.000000D+00  E= 3.384754D-02  Symmetry=a

 Vector    8  Occ=0.000000D+00  E= 4.652809D-02  Symmetry=a

 Vector    9  Occ=0.000000D+00  E= 4.652809D-02  Symmetry=a

 Vector   10  Occ=0.000000D+00  E= 4.825119D-02  Symmetry=a

 Vector   11  Occ=0.000000D+00  E= 1.030244D-01  Symmetry=a

 Vector   12  Occ=0.000000D+00  E= 1.089969D-01  Symmetry=a

 Vector   13  Occ=0.000000D+00  E= 1.148876D-01  Symmetry=a

 Vector   14  Occ=0.000000D+00  E= 1.148876D-01  Symmetry=a

         Total SCF energy =    -14.837893782617

 Vector    2  Occ=2.000000D+00  E=-2.477443D+00

 Vector    3  Occ=2.000000D+00  E=-1.430195D-01

 Vector    4  Occ=0.000000D+00  E=-5.013535D-02

 Vector    5  Occ=0.000000D+00  E= 2.605746D-02

 Vector    6  Occ=0.000000D+00  E= 2.605746D-02

 Vector    7  Occ=0.000000D+00  E= 3.384754D-02

 Vector    8  Occ=0.000000D+00  E= 4.652809D-02

 Vector    9  Occ=0.000000D+00  E= 4.652809D-02

 Vector   10  Occ=0.000000D+00  E= 4.825119D-02

 Vector   11  Occ=0.000000D+00  E= 1.030244D-01

 Vector   12  Occ=0.000000D+00  E= 1.089969D-01

 Vector   13  Occ=0.000000D+00  E= 1.148876D-01

 Vector   14  Occ=0.000000D+00  E= 1.148876D-01

 Vector   15  Occ=0.000000D+00  E= 1.297612D-01

 Vector   16  Occ=0.000000D+00  E= 1.297612D-01

 Vector   17  Occ=0.000000D+00  E= 1.375841D-01

 Vector   18  Occ=0.000000D+00  E= 1.530677D-01

 Vector   19  Occ=0.000000D+00  E= 2.107087D-01

 Vector   20  Occ=0.000000D+00  E= 2.107087D-01

 Vector   21  Occ=0.000000D+00  E= 2.176793D-01

 Vector   22  Occ=0.000000D+00  E= 2.176793D-01

 Vector   23  Occ=0.000000D+00  E= 2.442095D-01

 Vector   24  Occ=0.000000D+00  E= 2.442095D-01

 Vector   25  Occ=0.000000D+00  E= 2.654413D-01

 Vector   26  Occ=0.000000D+00  E= 2.961451D-01

 Vector   27  Occ=0.000000D+00  E= 2.961451D-01

 Vector   28  Occ=0.000000D+00  E= 3.391479D-01

 Vector   29  Occ=0.000000D+00  E= 3.653029D-01

 Vector   30  Occ=0.000000D+00  E= 3.653029D-01

 Vector   31  Occ=0.000000D+00  E= 3.786636D-01

 Vector   32  Occ=0.000000D+00  E= 3.786636D-01

 Vector   33  Occ=0.000000D+00  E= 3.837919D-01

 Vector   34  Occ=0.000000D+00  E= 3.994638D-01

 Vector   35  Occ=0.000000D+00  E= 4.179030D-01

 Vector   36  Occ=0.000000D+00  E= 4.803018D-01

 Vector   37  Occ=0.000000D+00  E= 6.847067D-01

       Multipole analysis of the density wrt the origin
       ------------------------------------------------

     L   x y z        total         open         nuclear
     -   - - -        -----         ----         -------
     0   0 0 0     -0.000000      0.000000      6.000000

     1   1 0 0     -0.000000      0.000000      0.000000
     1   0 1 0      0.000000      0.000000      0.000000
     1   0 0 1      0.000000      0.000000      0.000000

     2   2 0 0    -12.919381      0.000000      0.000000
     2   1 1 0     -0.000000      0.000000      0.000000
     2   1 0 1      0.000000      0.000000      0.000000
     2   0 2 0     -3.876404      0.000000    105.840000
     2   0 1 1      0.000000      0.000000      0.000000

 CCSD total energy / hartree       =       -14.870227329810687
 Total times  cpu:        3.2s     wall:        3.9s
