============================== echo of input deck ==============================
 echo
 start H2O
 title "H2O"

 memory total 24 gb

 geometry units bohr
 symmetry c1
        O  0.00000000  0.00000000  0.00000000
        H  0.00000000  1.66832225  0.00000000
        H  1.72558000 -0.64860000  0.00000000
 end

 basis spherical
   * library cc-pVDZ
 end

 mcscf
   active  8
   actelec 10
   multiplicity 1
   maxiter 40
   vectors input h2o.mos
   vectors output h2o.mos
 end

 task mcscf

 scf
   vectors input h2o.mos
   vectors output h2o-trash.mos
   noscf
 end

 tce
   2eorb
   2emet 13
   ccsd
   maxiter 300
 end

 set tce:print_integrals T
 set tce:qorb 8
 set tce:qela 5
 set tce:qelb 5

# set tce:qducc T
# set tce:nactv 3
# set tce:nonhf T
# set tce:ducc_model 6

 set tce:printtol 0.02

 task tce
================================================================================

 Output coordinates in a.u. (scale by  1.000000000 to convert to a.u.)

  No.       Tag          Charge          X              Y              Z
 ---- ---------------- ---------- -------------- -------------- --------------
    1 O                    8.0000    -0.17255800    -0.10197223     0.00000000
    2 H                    1.0000    -0.17255800     1.56635003     0.00000000
    3 H                    1.0000     1.55302200    -0.75057223     0.00000000

 Vector    1  Occ=1.999991D+00  E=-2.053758D+01  Symmetry=a

 Vector    2  Occ=1.998977D+00  E=-1.357949D+00  Symmetry=a

 Vector    3  Occ=1.984298D+00  E=-7.497539D-01  Symmetry=a

 Vector    4  Occ=1.981556D+00  E=-5.749081D-01  Symmetry=a

 Vector    5  Occ=1.977026D+00  E=-5.144653D-01  Symmetry=a

 Vector    6  Occ=2.374369D-02  E=-2.547146D-02  Symmetry=a

 Vector    7  Occ=1.905396D-02  E=-2.176412D-02  Symmetry=a

 Vector    8  Occ=1.535420D-02  E=-1.424395D-02  Symmetry=a

 Vector    9  Occ=0.000000D+00  E= 4.538356D-01  Symmetry=a

 Vector   10  Occ=0.000000D+00  E= 5.107917D-01  Symmetry=a

 Vector   11  Occ=0.000000D+00  E= 1.040372D+00  Symmetry=a

 Vector   12  Occ=0.000000D+00  E= 1.081613D+00  Symmetry=a

 Vector   13  Occ=0.000000D+00  E= 1.464254D+00  Symmetry=a

 Vector   14  Occ=0.000000D+00  E= 1.474042D+00  Symmetry=a

 Vector   15  Occ=0.000000D+00  E= 1.703452D+00  Symmetry=a

 Vector   16  Occ=0.000000D+00  E= 1.864623D+00  Symmetry=a

 Vector   17  Occ=0.000000D+00  E= 1.929336D+00  Symmetry=a

 Vector   18  Occ=0.000000D+00  E= 2.348541D+00  Symmetry=a

         Total SCF energy =    -76.019490989055

 Vector    2  Occ=2.000000D+00  E=-1.357949D+00

 Vector    3  Occ=2.000000D+00  E=-7.497539D-01

 Vector    4  Occ=2.000000D+00  E=-5.749081D-01

 Vector    5  Occ=2.000000D+00  E=-5.144653D-01

 Vector    6  Occ=0.000000D+00  E=-2.547146D-02

 Vector    7  Occ=0.000000D+00  E=-2.176412D-02

 Vector    8  Occ=0.000000D+00  E=-1.424395D-02

 Vector    9  Occ=0.000000D+00  E= 4.538356D-01

 Vector   10  Occ=0.000000D+00  E= 5.107917D-01

 Vector   11  Occ=0.000000D+00  E= 1.040372D+00

 Vector   12  Occ=0.000000D+00  E= 1.081613D+00

 Vector   13  Occ=0.000000D+00  E= 1.464254D+00

 Vector   14  Occ=0.000000D+00  E= 1.474042D+00

 Vector   15  Occ=0.000000D+00  E= 1.703452D+00

       Multipole analysis of the density wrt the origin
       ------------------------------------------------

     L   x y z        total         open         nuclear
     -   - - -        -----         ----         -------
     0   0 0 0     -0.000000      0.000000     10.000000

     1   1 0 0      0.613866      0.000000     -0.000000
     1   0 1 0      0.388602      0.000000     -0.000000
     1   0 0 1      0.000000      0.000000      0.000000

     2   2 0 0     -3.923854      0.000000      2.679864
     2   1 1 0     -0.740496      0.000000     -1.295172
     2   1 0 1      0.000000      0.000000      0.000000
     2   0 2 0     -3.550909      0.000000      3.099998
     2   0 1 1      0.000000      0.000000      0.000000

 CCSD total energy / hartree       =       -76.105472286659477
 Total times  cpu:       51.4s     wall:       71.5s
