============================== echo of input deck ==============================
 echo
 start H2O
 title "H2O"

 memory total 24 gb

 geometry units bohr
 symmetry c1
        O  0.00000000  0.00000000  0.00000000
        H  0.00000000  1.70519125  0.00000000
        H  1.72558000 -0.64860000  0.00000000
 end

 basis spherical
   * library cc-pVDZ
 end

 mcscf
   active  8
   actelec 10
   multiplicity 1
   maxiter 40
   vectors input h2o.mos
   vectors output h2o.mos
 end

 task mcscf

 scf
   vectors input h2o.mos
   vectors output h2o-trash.mos
   noscf
 end

 tce
   2eorb
   2emet 13
   ccsd
   maxiter 300
 end

 set tce:print_integrals T
 set tce:qorb 8
 set tce:qela 5
 set tce:qelb 5

# set tce:qducc T
# set tce:nactv 3
# set tce:nonhf T
# set tce:ducc_model 6

 set tce:printtol 0.02

 task tce
================================================================================

 Output coordinates in a.u. (scale by  1.000000000 to convert to a.u.)

  No.       Tag          Charge          X              Y              Z
 ---- ---------------- ---------- -------------- -------------- --------------
    1 O                    8.0000    -0.17255800    -0.10565913     0.00000000
    2 H                    1.0000    -0.17255800     1.59953213     0.00000000
    3 H                    1.0000     1.55302200    -0.75425913     0.00000000

 Vector    1  Occ=1.999991D+00  E=-2.053922D+01  Symmetry=a

 Vector    2  Occ=1.998946D+00  E=-1.351845D+00  Symmetry=a

 Vector    3  Occ=1.984168D+00  E=-7.442127D-01  Symmetry=a

 Vector    4  Occ=1.980611D+00  E=-5.734398D-01  Symmetry=a

 Vector    5  Occ=1.976901D+00  E=-5.135649D-01  Symmetry=a

 Vector    6  Occ=2.386767D-02  E=-2.551238D-02  Symmetry=a

 Vector    7  Occ=2.004773D-02  E=-2.248665D-02  Symmetry=a

 Vector    8  Occ=1.546742D-02  E=-1.423161D-02  Symmetry=a

 Vector    9  Occ=0.000000D+00  E= 4.567145D-01  Symmetry=a

 Vector   10  Occ=0.000000D+00  E= 5.111827D-01  Symmetry=a

 Vector   11  Occ=0.000000D+00  E= 1.040222D+00  Symmetry=a

 Vector   12  Occ=0.000000D+00  E= 1.080563D+00  Symmetry=a

 Vector   13  Occ=0.000000D+00  E= 1.461475D+00  Symmetry=a

 Vector   14  Occ=0.000000D+00  E= 1.476359D+00  Symmetry=a

 Vector   15  Occ=0.000000D+00  E= 1.702048D+00  Symmetry=a

 Vector   16  Occ=0.000000D+00  E= 1.865037D+00  Symmetry=a

 Vector   17  Occ=0.000000D+00  E= 1.918966D+00  Symmetry=a

 Vector   18  Occ=0.000000D+00  E= 2.348561D+00  Symmetry=a

         Total SCF energy =    -76.022188490994

 Vector    2  Occ=2.000000D+00  E=-1.351845D+00

 Vector    3  Occ=2.000000D+00  E=-7.442127D-01

 Vector    4  Occ=2.000000D+00  E=-5.734398D-01

 Vector    5  Occ=2.000000D+00  E=-5.135649D-01

 Vector    6  Occ=0.000000D+00  E=-2.551238D-02

 Vector    7  Occ=0.000000D+00  E=-2.248665D-02

 Vector    8  Occ=0.000000D+00  E=-1.423161D-02

 Vector    9  Occ=0.000000D+00  E= 4.567145D-01

 Vector   10  Occ=0.000000D+00  E= 5.111827D-01

 Vector   11  Occ=0.000000D+00  E= 1.040222D+00

 Vector   12  Occ=0.000000D+00  E= 1.080563D+00

 Vector   13  Occ=0.000000D+00  E= 1.461475D+00

 Vector   14  Occ=0.000000D+00  E= 1.476359D+00

 Vector   15  Occ=0.000000D+00  E= 1.702048D+00

       Multipole analysis of the density wrt the origin
       ------------------------------------------------

     L   x y z        total         open         nuclear
     -   - - -        -----         ----         -------
     0   0 0 0     -0.000000      0.000000     10.000000

     1   1 0 0      0.612108      0.000000     -0.000000
     1   0 1 0      0.395698      0.000000      0.000000
     1   0 0 1      0.000001      0.000000      0.000000

     2   2 0 0     -3.939488      0.000000      2.679864
     2   1 1 0     -0.744274      0.000000     -1.301534
     2   1 0 1      0.000001      0.000000      0.000000
     2   0 2 0     -3.526094      0.000000      3.216721
     2   0 1 1      0.000001      0.000000      0.000000

 CCSD total energy / hartree       =       -76.109049816361278
 Total times  cpu:       51.2s     wall:       71.9s
