============================== echo of input deck ==============================
 echo
 start H2O
 title "H2O"

 memory total 24 gb

 geometry units bohr
 symmetry c1
        O  0.00000000  0.00000000  0.00000000
        H  0.00000000  1.7144085  0.00000000
        H  1.72558000 -0.64860000  0.00000000
 end

 basis spherical
   * library cc-pVDZ
 end

 mcscf
   active  8
   actelec 10
   multiplicity 1
   maxiter 40
   vectors input h2o.mos
   vectors output h2o.mos
 end

 task mcscf

 scf
   vectors input h2o.mos
   vectors output h2o-trash.mos
   noscf
 end

 tce
   2eorb
   2emet 13
   ccsd
   maxiter 300
 end

 set tce:print_integrals T
 set tce:qorb 8
 set tce:qela 5
 set tce:qelb 5

# set tce:qducc T
# set tce:nactv 3
# set tce:nonhf T
# set tce:ducc_model 6

 set tce:printtol 0.02

 task tce
================================================================================

 Output coordinates in a.u. (scale by  1.000000000 to convert to a.u.)

  No.       Tag          Charge          X              Y              Z
 ---- ---------------- ---------- -------------- -------------- --------------
    1 O                    8.0000    -0.17255800    -0.10658085     0.00000000
    2 H                    1.0000    -0.17255800     1.60782765     0.00000000
    3 H                    1.0000     1.55302200    -0.75518085     0.00000000

 Vector    1  Occ=1.999991D+00  E=-2.053962D+01  Symmetry=a

 Vector    2  Occ=1.998939D+00  E=-1.350376D+00  Symmetry=a

 Vector    3  Occ=1.984136D+00  E=-7.428407D-01  Symmetry=a

 Vector    4  Occ=1.980367D+00  E=-5.730727D-01  Symmetry=a

 Vector    5  Occ=1.976868D+00  E=-5.133484D-01  Symmetry=a

 Vector    6  Occ=2.389925D-02  E=-2.552477D-02  Symmetry=a

 Vector    7  Occ=2.030479D-02  E=-2.266804D-02  Symmetry=a

 Vector    8  Occ=1.549526D-02  E=-1.422799D-02  Symmetry=a

 Vector    9  Occ=0.000000D+00  E= 4.574075D-01  Symmetry=a

 Vector   10  Occ=0.000000D+00  E= 5.112809D-01  Symmetry=a

 Vector   11  Occ=0.000000D+00  E= 1.040197D+00  Symmetry=a

 Vector   12  Occ=0.000000D+00  E= 1.080419D+00  Symmetry=a

 Vector   13  Occ=0.000000D+00  E= 1.460811D+00  Symmetry=a

 Vector   14  Occ=0.000000D+00  E= 1.476962D+00  Symmetry=a

 Vector   15  Occ=0.000000D+00  E= 1.701712D+00  Symmetry=a

 Vector   16  Occ=0.000000D+00  E= 1.865162D+00  Symmetry=a

 Vector   17  Occ=0.000000D+00  E= 1.916397D+00  Symmetry=a

 Vector   18  Occ=0.000000D+00  E= 2.348564D+00  Symmetry=a

         Total SCF energy =    -76.022678831033

 Vector    2  Occ=2.000000D+00  E=-1.350376D+00

 Vector    3  Occ=2.000000D+00  E=-7.428407D-01

 Vector    4  Occ=2.000000D+00  E=-5.730727D-01

 Vector    5  Occ=2.000000D+00  E=-5.133484D-01

 Vector    6  Occ=0.000000D+00  E=-2.552477D-02

 Vector    7  Occ=0.000000D+00  E=-2.266804D-02

 Vector    8  Occ=0.000000D+00  E=-1.422799D-02

 Vector    9  Occ=0.000000D+00  E= 4.574075D-01

 Vector   10  Occ=0.000000D+00  E= 5.112809D-01

 Vector   11  Occ=0.000000D+00  E= 1.040197D+00

 Vector   12  Occ=0.000000D+00  E= 1.080419D+00

 Vector   13  Occ=0.000000D+00  E= 1.460811D+00

 Vector   14  Occ=0.000000D+00  E= 1.476962D+00

 Vector   15  Occ=0.000000D+00  E= 1.701712D+00

       Multipole analysis of the density wrt the origin
       ------------------------------------------------

     L   x y z        total         open         nuclear
     -   - - -        -----         ----         -------
     0   0 0 0     -0.000000      0.000000     10.000000

     1   1 0 0      0.611681      0.000000     -0.000000
     1   0 1 0      0.397434      0.000000      0.000000
     1   0 0 1     -0.000001      0.000000      0.000000

     2   2 0 0     -3.943375      0.000000      2.679864
     2   1 1 0     -0.745202      0.000000     -1.303125
     2   1 0 1     -0.000001      0.000000      0.000000
     2   0 2 0     -3.519774      0.000000      3.246284
     2   0 1 1     -0.000001      0.000000      0.000000

 CCSD total energy / hartree       =       -76.109761929281419
 Total times  cpu:       50.7s     wall:       71.7s
