============================== echo of input deck ==============================
 echo
 start H2O
 title "H2O"

 memory total 24 gb

 geometry units bohr
 symmetry c1
        O  0.00000000  0.00000000  0.00000000
        H  0.00000000  1.732843  0.00000000
        H  1.72558000 -0.64860000  0.00000000
 end

 basis spherical
   * library cc-pVDZ
 end

 mcscf
   active  8
   actelec 10
   multiplicity 1
   maxiter 40
   vectors input h2o.mos
   vectors output h2o.mos
 end

 task mcscf

 scf
   vectors input h2o.mos
   vectors output h2o-trash.mos
   noscf
 end

 tce
   2eorb
   2emet 13
   ccsd
   maxiter 300
 end

 set tce:print_integrals T
 set tce:qorb 8
 set tce:qela 5
 set tce:qelb 5

# set tce:qducc T
# set tce:nactv 3
# set tce:nonhf T
# set tce:ducc_model 6

 set tce:printtol 0.02

 task tce
================================================================================

 Output coordinates in a.u. (scale by  1.000000000 to convert to a.u.)

  No.       Tag          Charge          X              Y              Z
 ---- ---------------- ---------- -------------- -------------- --------------
    1 O                    8.0000    -0.17255800    -0.10842430     0.00000000
    2 H                    1.0000    -0.17255800     1.62441870     0.00000000
    3 H                    1.0000     1.55302200    -0.75702430     0.00000000

 Vector    1  Occ=1.999991D+00  E=-2.054042D+01  Symmetry=a

 Vector    2  Occ=1.998923D+00  E=-1.347503D+00  Symmetry=a

 Vector    3  Occ=1.984073D+00  E=-7.401140D-01  Symmetry=a

 Vector    4  Occ=1.979868D+00  E=-5.723381D-01  Symmetry=a

 Vector    5  Occ=1.976802D+00  E=-5.129259D-01  Symmetry=a

 Vector    6  Occ=2.396323D-02  E=-2.555319D-02  Symmetry=a

 Vector    7  Occ=2.082944D-02  E=-2.303075D-02  Symmetry=a

 Vector    8  Occ=1.555033D-02  E=-1.422008D-02  Symmetry=a

 Vector    9  Occ=0.000000D+00  E= 4.587653D-01  Symmetry=a

 Vector   10  Occ=0.000000D+00  E= 5.114801D-01  Symmetry=a

 Vector   11  Occ=0.000000D+00  E= 1.040149D+00  Symmetry=a

 Vector   12  Occ=0.000000D+00  E= 1.080281D+00  Symmetry=a

 Vector   13  Occ=0.000000D+00  E= 1.459519D+00  Symmetry=a

 Vector   14  Occ=0.000000D+00  E= 1.478194D+00  Symmetry=a

 Vector   15  Occ=0.000000D+00  E= 1.701054D+00  Symmetry=a

 Vector   16  Occ=0.000000D+00  E= 1.865432D+00  Symmetry=a

 Vector   17  Occ=0.000000D+00  E= 1.911284D+00  Symmetry=a

 Vector   18  Occ=0.000000D+00  E= 2.348560D+00  Symmetry=a

         Total SCF energy =    -76.023454900480

 Vector    2  Occ=2.000000D+00  E=-1.347503D+00

 Vector    3  Occ=2.000000D+00  E=-7.401140D-01

 Vector    4  Occ=2.000000D+00  E=-5.723381D-01

 Vector    5  Occ=2.000000D+00  E=-5.129259D-01

 Vector    6  Occ=0.000000D+00  E=-2.555319D-02

 Vector    7  Occ=0.000000D+00  E=-2.303075D-02

 Vector    8  Occ=0.000000D+00  E=-1.422008D-02

 Vector    9  Occ=0.000000D+00  E= 4.587653D-01

 Vector   10  Occ=0.000000D+00  E= 5.114801D-01

 Vector   11  Occ=0.000000D+00  E= 1.040149D+00

 Vector   12  Occ=0.000000D+00  E= 1.080281D+00

 Vector   13  Occ=0.000000D+00  E= 1.459519D+00

 Vector   14  Occ=0.000000D+00  E= 1.478194D+00

 Vector   15  Occ=0.000000D+00  E= 1.701054D+00

       Multipole analysis of the density wrt the origin
       ------------------------------------------------

     L   x y z        total         open         nuclear
     -   - - -        -----         ----         -------
     0   0 0 0     -0.000000      0.000000     10.000000

     1   1 0 0      0.610844      0.000000     -0.000000
     1   0 1 0      0.400854      0.000000      0.000000
     1   0 0 1     -0.000001      0.000000      0.000000

     2   2 0 0     -3.951122      0.000000      2.679864
     2   1 1 0     -0.747039      0.000000     -1.306306
     2   1 0 1     -0.000001      0.000000      0.000000
     2   0 2 0     -3.507003      0.000000      3.305869
     2   0 1 1     -0.000001      0.000000      0.000000

 CCSD total energy / hartree       =       -76.110983610191781
 Total times  cpu:       50.6s     wall:       71.9s
