============================== echo of input deck ==============================
 echo
 start H2O
 title "H2O"

 memory total 24 gb

 geometry units bohr
 symmetry c1
        O  0.00000000  0.00000000  0.00000000
        H  0.00000000  1.77892925  0.00000000
        H  1.72558000 -0.64860000  0.00000000
 end

 basis spherical
   * library cc-pVDZ
 end

 mcscf
   active  8
   actelec 10
   multiplicity 1
   maxiter 40
   vectors input h2o.mos
   vectors output h2o.mos
 end

 task mcscf

 scf
   vectors input h2o.mos
   vectors output h2o-trash.mos
   noscf
 end

 tce
   2eorb
   2emet 13
   ccsd
   maxiter 300
 end

 set tce:print_integrals T
 set tce:qorb 8
 set tce:qela 5
 set tce:qelb 5

# set tce:qducc T
# set tce:nactv 3
# set tce:nonhf T
# set tce:ducc_model 6

 set tce:printtol 0.02

 task tce
================================================================================

 Output coordinates in a.u. (scale by  1.000000000 to convert to a.u.)

  No.       Tag          Charge          X              Y              Z
 ---- ---------------- ---------- -------------- -------------- --------------
    1 O                    8.0000    -0.17255800    -0.11303293     0.00000000
    2 H                    1.0000    -0.17255800     1.66589633     0.00000000
    3 H                    1.0000     1.55302200    -0.76163293     0.00000000

 Vector    1  Occ=1.999991D+00  E=-2.054238D+01  Symmetry=a

 Vector    2  Occ=1.998882D+00  E=-1.340697D+00  Symmetry=a

 Vector    3  Occ=1.983918D+00  E=-7.334047D-01  Symmetry=a

 Vector    4  Occ=1.978572D+00  E=-5.704966D-01  Symmetry=a

 Vector    5  Occ=1.976620D+00  E=-5.119311D-01  Symmetry=a

 Vector    6  Occ=2.413062D-02  E=-2.566107D-02  Symmetry=a

 Vector    7  Occ=2.220205D-02  E=-2.392211D-02  Symmetry=a

 Vector    8  Occ=1.568411D-02  E=-1.419655D-02  Symmetry=a

 Vector    9  Occ=0.000000D+00  E= 4.620134D-01  Symmetry=a

 Vector   10  Occ=0.000000D+00  E= 5.120042D-01  Symmetry=a

 Vector   11  Occ=0.000000D+00  E= 1.039963D+00  Symmetry=a

 Vector   12  Occ=0.000000D+00  E= 1.080864D+00  Symmetry=a

 Vector   13  Occ=0.000000D+00  E= 1.456504D+00  Symmetry=a

 Vector   14  Occ=0.000000D+00  E= 1.481404D+00  Symmetry=a

 Vector   15  Occ=0.000000D+00  E= 1.699476D+00  Symmetry=a

 Vector   16  Occ=0.000000D+00  E= 1.866167D+00  Symmetry=a

 Vector   17  Occ=0.000000D+00  E= 1.898659D+00  Symmetry=a

 Vector   18  Occ=0.000000D+00  E= 2.348415D+00  Symmetry=a

         Total SCF energy =    -76.024300249556

 Vector    2  Occ=2.000000D+00  E=-1.340697D+00

 Vector    3  Occ=2.000000D+00  E=-7.334047D-01

 Vector    4  Occ=2.000000D+00  E=-5.704966D-01

 Vector    5  Occ=2.000000D+00  E=-5.119311D-01

 Vector    6  Occ=0.000000D+00  E=-2.566107D-02

 Vector    7  Occ=0.000000D+00  E=-2.392211D-02

 Vector    8  Occ=0.000000D+00  E=-1.419655D-02

 Vector    9  Occ=0.000000D+00  E= 4.620134D-01

 Vector   10  Occ=0.000000D+00  E= 5.120042D-01

 Vector   11  Occ=0.000000D+00  E= 1.039963D+00

 Vector   12  Occ=0.000000D+00  E= 1.080864D+00

 Vector   13  Occ=0.000000D+00  E= 1.456504D+00

 Vector   14  Occ=0.000000D+00  E= 1.481404D+00

 Vector   15  Occ=0.000000D+00  E= 1.699476D+00

       Multipole analysis of the density wrt the origin
       ------------------------------------------------

     L   x y z        total         open         nuclear
     -   - - -        -----         ----         -------
     0   0 0 0     -0.000000      0.000000     10.000000

     1   1 0 0      0.608835      0.000000     -0.000000
     1   0 1 0      0.409098      0.000000      0.000000
     1   0 0 1      0.000000      0.000000      0.000000

     2   2 0 0     -3.970332      0.000000      2.679864
     2   1 1 0     -0.751512      0.000000     -1.314259
     2   1 0 1      0.000000      0.000000      0.000000
     2   0 2 0     -3.474393      0.000000      3.457507
     2   0 1 1      0.000000      0.000000      0.000000

 CCSD total energy / hartree       =       -76.112954742950706
 Total times  cpu:       52.2s     wall:       72.2s
