============================== echo of input deck ==============================
 echo
 start H2O
 title "H2O"

 memory total 24 gb

 geometry units bohr
 symmetry c1
        O  0.00000000  0.00000000  0.00000000
        H  0.00000000  1.806581  0.00000000
        H  1.72558000 -0.64860000  0.00000000
 end

 basis spherical
   * library cc-pVDZ
 end

 mcscf
   active  8
   actelec 10
   multiplicity 1
   maxiter 40
   vectors input h2o.mos
   vectors output h2o.mos
 end

 task mcscf

 scf
   vectors input h2o.mos
   vectors output h2o-trash.mos
   noscf
 end

 tce
   2eorb
   2emet 13
   ccsd
   maxiter 300
 end

 set tce:print_integrals T
 set tce:qorb 8
 set tce:qela 5
 set tce:qelb 5

# set tce:qducc T
# set tce:nactv 3
# set tce:nonhf T
# set tce:ducc_model 6

 set tce:printtol 0.02

 task tce
================================================================================

 Output coordinates in a.u. (scale by  1.000000000 to convert to a.u.)

  No.       Tag          Charge          X              Y              Z
 ---- ---------------- ---------- -------------- -------------- --------------
    1 O                    8.0000    -0.17255800    -0.11579810     0.00000000
    2 H                    1.0000    -0.17255800     1.69078290     0.00000000
    3 H                    1.0000     1.55302200    -0.76439810     0.00000000

 Vector    1  Occ=1.999991D+00  E=-2.054352D+01  Symmetry=a

 Vector    2  Occ=1.998857D+00  E=-1.336862D+00  Symmetry=a

 Vector    3  Occ=1.983827D+00  E=-7.294596D-01  Symmetry=a

 Vector    4  Occ=1.977776D+00  E=-5.693853D-01  Symmetry=a

 Vector    5  Occ=1.976482D+00  E=-5.113751D-01  Symmetry=a

 Vector    6  Occ=2.424487D-02  E=-2.577993D-02  Symmetry=a

 Vector    7  Occ=2.306079D-02  E=-2.441588D-02  Symmetry=a

 Vector    8  Occ=1.576140D-02  E=-1.418003D-02  Symmetry=a

 Vector    9  Occ=0.000000D+00  E= 4.638085D-01  Symmetry=a

 Vector   10  Occ=0.000000D+00  E= 5.123253D-01  Symmetry=a

 Vector   11  Occ=0.000000D+00  E= 1.039719D+00  Symmetry=a

 Vector   12  Occ=0.000000D+00  E= 1.081854D+00  Symmetry=a

 Vector   13  Occ=0.000000D+00  E= 1.454840D+00  Symmetry=a

 Vector   14  Occ=0.000000D+00  E= 1.483403D+00  Symmetry=a

 Vector   15  Occ=0.000000D+00  E= 1.698557D+00  Symmetry=a

 Vector   16  Occ=0.000000D+00  E= 1.866590D+00  Symmetry=a

 Vector   17  Occ=0.000000D+00  E= 1.891200D+00  Symmetry=a

 Vector   18  Occ=0.000000D+00  E= 2.347971D+00  Symmetry=a

         Total SCF energy =    -76.024134536556

 Vector    2  Occ=2.000000D+00  E=-1.336862D+00

 Vector    3  Occ=2.000000D+00  E=-7.294596D-01

 Vector    4  Occ=2.000000D+00  E=-5.693853D-01

 Vector    5  Occ=2.000000D+00  E=-5.113751D-01

 Vector    6  Occ=0.000000D+00  E=-2.577993D-02

 Vector    7  Occ=0.000000D+00  E=-2.441588D-02

 Vector    8  Occ=0.000000D+00  E=-1.418003D-02

 Vector    9  Occ=0.000000D+00  E= 4.638085D-01

 Vector   10  Occ=0.000000D+00  E= 5.123253D-01

 Vector   11  Occ=0.000000D+00  E= 1.039719D+00

 Vector   12  Occ=0.000000D+00  E= 1.081854D+00

 Vector   13  Occ=0.000000D+00  E= 1.454840D+00

 Vector   14  Occ=0.000000D+00  E= 1.483403D+00

 Vector   15  Occ=0.000000D+00  E= 1.698557D+00

       Multipole analysis of the density wrt the origin
       ------------------------------------------------

     L   x y z        total         open         nuclear
     -   - - -        -----         ----         -------
     0   0 0 0     -0.000000      0.000000     10.000000

     1   1 0 0      0.607694      0.000000     -0.000000
     1   0 1 0      0.413813      0.000000      0.000000
     1   0 0 1      0.000000      0.000000      0.000000

     2   2 0 0     -3.981745      0.000000      2.679864
     2   1 1 0     -0.754102      0.000000     -1.319030
     2   1 0 1     -0.000000      0.000000      0.000000
     2   0 2 0     -3.454427      0.000000      3.550325
     2   0 1 1     -0.000000      0.000000      0.000000

 CCSD total energy / hartree       =       -76.113472411508582
 Total times  cpu:       52.0s     wall:       72.1s
