============================== echo of input deck ==============================
 echo
 start H2O
 title "H2O"

 memory total 24 gb

 geometry units bohr
 symmetry c1
        O  0.00000000  0.00000000  0.00000000
        H  0.00000000  1.87110175  0.00000000
        H  1.72558000 -0.64860000  0.00000000
 end

 basis spherical
   * library cc-pVDZ
 end

 mcscf
   active  8
   actelec 10
   multiplicity 1
   maxiter 40
   vectors input h2o.mos
   vectors output h2o.mos
 end

 task mcscf

 scf
   vectors input h2o.mos
   vectors output h2o-trash.mos
   noscf
 end

 tce
   2eorb
   2emet 13
   ccsd
   maxiter 300
 end

 set tce:print_integrals T
 set tce:qorb 8
 set tce:qela 5
 set tce:qelb 5

# set tce:qducc T
# set tce:nactv 3
# set tce:nonhf T
# set tce:ducc_model 6

 set tce:printtol 0.02

 task tce
================================================================================

 Output coordinates in a.u. (scale by  1.000000000 to convert to a.u.)

  No.       Tag          Charge          X              Y              Z
 ---- ---------------- ---------- -------------- -------------- --------------
    1 O                    8.0000    -0.17255800    -0.12225018     0.00000000
    2 H                    1.0000    -0.17255800     1.74885158     0.00000000
    3 H                    1.0000     1.55302200    -0.77085018     0.00000000

 Vector    1  Occ=1.999991D+00  E=-2.054612D+01  Symmetry=a

 Vector    2  Occ=1.998796D+00  E=-1.328587D+00  Symmetry=a

 Vector    3  Occ=1.983625D+00  E=-7.204983D-01  Symmetry=a

 Vector    4  Occ=1.976531D+00  E=-5.667410D-01  Symmetry=a

 Vector    5  Occ=1.975396D+00  E=-5.101770D-01  Symmetry=a

 Vector    6  Occ=2.537064D-02  E=-2.649542D-02  Symmetry=a

 Vector    7  Occ=2.435837D-02  E=-2.516301D-02  Symmetry=a

 Vector    8  Occ=1.593204D-02  E=-1.413479D-02  Symmetry=a

 Vector    9  Occ=0.000000D+00  E= 4.676985D-01  Symmetry=a

 Vector   10  Occ=0.000000D+00  E= 5.131375D-01  Symmetry=a

 Vector   11  Occ=0.000000D+00  E= 1.038887D+00  Symmetry=a

 Vector   12  Occ=0.000000D+00  E= 1.086000D+00  Symmetry=a

 Vector   13  Occ=0.000000D+00  E= 1.451373D+00  Symmetry=a

 Vector   14  Occ=0.000000D+00  E= 1.488220D+00  Symmetry=a

 Vector   15  Occ=0.000000D+00  E= 1.696457D+00  Symmetry=a

 Vector   16  Occ=0.000000D+00  E= 1.866773D+00  Symmetry=a

 Vector   17  Occ=0.000000D+00  E= 1.874496D+00  Symmetry=a

 Vector   18  Occ=0.000000D+00  E= 2.318806D+00  Symmetry=a

         Total SCF energy =    -76.022085897186

 Vector    2  Occ=2.000000D+00  E=-1.328587D+00

 Vector    3  Occ=2.000000D+00  E=-7.204983D-01

 Vector    4  Occ=2.000000D+00  E=-5.667410D-01

 Vector    5  Occ=2.000000D+00  E=-5.101770D-01

 Vector    6  Occ=0.000000D+00  E=-2.649542D-02

 Vector    7  Occ=0.000000D+00  E=-2.516301D-02

 Vector    8  Occ=0.000000D+00  E=-1.413479D-02

 Vector    9  Occ=0.000000D+00  E= 4.676985D-01

 Vector   10  Occ=0.000000D+00  E= 5.131375D-01

 Vector   11  Occ=0.000000D+00  E= 1.038887D+00

 Vector   12  Occ=0.000000D+00  E= 1.086000D+00

 Vector   13  Occ=0.000000D+00  E= 1.451373D+00

 Vector   14  Occ=0.000000D+00  E= 1.488220D+00

 Vector   15  Occ=0.000000D+00  E= 1.696457D+00

       Multipole analysis of the density wrt the origin
       ------------------------------------------------

     L   x y z        total         open         nuclear
     -   - - -        -----         ----         -------
     0   0 0 0     -0.000000      0.000000     10.000000

     1   1 0 0      0.605227      0.000000     -0.000000
     1   0 1 0      0.424042      0.000000      0.000000
     1   0 0 1     -0.000001      0.000000      0.000000

     2   2 0 0     -4.008034      0.000000      2.679864
     2   1 1 0     -0.759909      0.000000     -1.330164
     2   1 0 1      0.000000      0.000000      0.000000
     2   0 2 0     -3.406895      0.000000      3.772253
     2   0 1 1      0.000000      0.000000      0.000000

 CCSD total energy / hartree       =       -76.113039978039865
 Total times  cpu:       51.9s     wall:       72.6s
