============================== echo of input deck ==============================
 echo
 start H2O
 title "H2O"

 memory total 24 gb

 geometry units bohr
 symmetry c1
        O  0.00000000  0.00000000  0.00000000
        H  0.00000000  1.92640525  0.00000000
        H  1.72558000 -0.64860000  0.00000000
 end

 basis spherical
   * library cc-pVDZ
 end

 mcscf
   active  8
   actelec 10
   multiplicity 1
   maxiter 40
   vectors input h2o.mos
   vectors output h2o.mos
 end

 task mcscf

 scf
   vectors input h2o.mos
   vectors output h2o-trash.mos
   noscf
 end

 tce
   2eorb
   2emet 13
   ccsd
   maxiter 300
 end

 set tce:print_integrals T
 set tce:qorb 8
 set tce:qela 5
 set tce:qelb 5

# set tce:qducc T
# set tce:nactv 3
# set tce:nonhf T
# set tce:ducc_model 6

 set tce:printtol 0.02

 task tce
================================================================================

 Output coordinates in a.u. (scale by  1.000000000 to convert to a.u.)

  No.       Tag          Charge          X              Y              Z
 ---- ---------------- ---------- -------------- -------------- --------------
    1 O                    8.0000    -0.17255800    -0.12778053     0.00000000
    2 H                    1.0000    -0.17255800     1.79862473     0.00000000
    3 H                    1.0000     1.55302200    -0.77638053     0.00000000

 Vector    1  Occ=1.999991D+00  E=-2.054826D+01  Symmetry=a

 Vector    2  Occ=1.998740D+00  E=-1.322247D+00  Symmetry=a

 Vector    3  Occ=1.983463D+00  E=-7.131498D-01  Symmetry=a

 Vector    4  Occ=1.976252D+00  E=-5.644492D-01  Symmetry=a

 Vector    5  Occ=1.973495D+00  E=-5.093167D-01  Symmetry=a

 Vector    6  Occ=2.740511D-02  E=-2.760484D-02  Symmetry=a

 Vector    7  Occ=2.458738D-02  E=-2.537536D-02  Symmetry=a

 Vector    8  Occ=1.606634D-02  E=-1.408710D-02  Symmetry=a

 Vector    9  Occ=0.000000D+00  E= 4.710780D-01  Symmetry=a

 Vector   10  Occ=0.000000D+00  E= 5.141171D-01  Symmetry=a

 Vector   11  Occ=0.000000D+00  E= 1.037830D+00  Symmetry=a

 Vector   12  Occ=0.000000D+00  E= 1.091673D+00  Symmetry=a

 Vector   13  Occ=0.000000D+00  E= 1.448850D+00  Symmetry=a

 Vector   14  Occ=0.000000D+00  E= 1.492492D+00  Symmetry=a

 Vector   15  Occ=0.000000D+00  E= 1.694634D+00  Symmetry=a

 Vector   16  Occ=0.000000D+00  E= 1.858465D+00  Symmetry=a

 Vector   17  Occ=0.000000D+00  E= 1.868190D+00  Symmetry=a

 Vector   18  Occ=0.000000D+00  E= 2.264924D+00  Symmetry=a

         Total SCF energy =    -76.018781600176

 Vector    2  Occ=2.000000D+00  E=-1.322247D+00

 Vector    3  Occ=2.000000D+00  E=-7.131498D-01

 Vector    4  Occ=2.000000D+00  E=-5.644492D-01

 Vector    5  Occ=2.000000D+00  E=-5.093167D-01

 Vector    6  Occ=0.000000D+00  E=-2.760484D-02

 Vector    7  Occ=0.000000D+00  E=-2.537536D-02

 Vector    8  Occ=0.000000D+00  E=-1.408710D-02

 Vector    9  Occ=0.000000D+00  E= 4.710780D-01

 Vector   10  Occ=0.000000D+00  E= 5.141171D-01

 Vector   11  Occ=0.000000D+00  E= 1.037830D+00

 Vector   12  Occ=0.000000D+00  E= 1.091673D+00

 Vector   13  Occ=0.000000D+00  E= 1.448850D+00

 Vector   14  Occ=0.000000D+00  E= 1.492492D+00

 Vector   15  Occ=0.000000D+00  E= 1.694634D+00

       Multipole analysis of the density wrt the origin
       ------------------------------------------------

     L   x y z        total         open         nuclear
     -   - - -        -----         ----         -------
     0   0 0 0     -0.000000      0.000000     10.000000

     1   1 0 0      0.603285      0.000000     -0.000000
     1   0 1 0      0.431884      0.000000      0.000000
     1   0 0 1     -0.000000      0.000000      0.000000

     2   2 0 0     -4.030179      0.000000      2.679864
     2   1 1 0     -0.764557      0.000000     -1.339707
     2   1 0 1      0.000000      0.000000      0.000000
     2   0 2 0     -3.365473      0.000000      3.968441
     2   0 1 1      0.000000      0.000000      0.000000

 CCSD total energy / hartree       =       -76.111145652351624
 Total times  cpu:       50.5s     wall:       71.5s
