============================== echo of input deck ==============================
 echo
 start H2O
 title "H2O"

 memory total 24 gb

 geometry units bohr
 symmetry c1
        O  0.00000000  0.00000000  0.00000000
        H  0.00000000  1.9356225  0.00000000
        H  1.72558000 -0.64860000  0.00000000
 end

 basis spherical
   * library cc-pVDZ
 end

 mcscf
   active  8
   actelec 10
   multiplicity 1
   maxiter 40
   vectors input h2o.mos
   vectors output h2o.mos
 end

 task mcscf

 scf
   vectors input h2o.mos
   vectors output h2o-trash.mos
   noscf
 end

 tce
   2eorb
   2emet 13
   ccsd
   maxiter 300
 end

 set tce:print_integrals T
 set tce:qorb 8
 set tce:qela 5
 set tce:qelb 5

# set tce:qducc T
# set tce:nactv 3
# set tce:nonhf T
# set tce:ducc_model 6

 set tce:printtol 0.02

 task tce
================================================================================

 Output coordinates in a.u. (scale by  1.000000000 to convert to a.u.)

  No.       Tag          Charge          X              Y              Z
 ---- ---------------- ---------- -------------- -------------- --------------
    1 O                    8.0000    -0.17255800    -0.12870225     0.00000000
    2 H                    1.0000    -0.17255800     1.80692025     0.00000000
    3 H                    1.0000     1.55302200    -0.77730225     0.00000000

 Vector    1  Occ=1.999991D+00  E=-2.054861D+01  Symmetry=a

 Vector    2  Occ=1.998731D+00  E=-1.321253D+00  Symmetry=a

 Vector    3  Occ=1.983437D+00  E=-7.119563D-01  Symmetry=a

 Vector    4  Occ=1.976215D+00  E=-5.640620D-01  Symmetry=a

 Vector    5  Occ=1.973150D+00  E=-5.091864D-01  Symmetry=a

 Vector    6  Occ=2.776665D-02  E=-2.780973D-02  Symmetry=a

 Vector    7  Occ=2.462114D-02  E=-2.539588D-02  Symmetry=a

 Vector    8  Occ=1.608756D-02  E=-1.407843D-02  Symmetry=a

 Vector    9  Occ=0.000000D+00  E= 4.716219D-01  Symmetry=a

 Vector   10  Occ=0.000000D+00  E= 5.142999D-01  Symmetry=a

 Vector   11  Occ=0.000000D+00  E= 1.037633D+00  Symmetry=a

 Vector   12  Occ=0.000000D+00  E= 1.092784D+00  Symmetry=a

 Vector   13  Occ=0.000000D+00  E= 1.448468D+00  Symmetry=a

 Vector   14  Occ=0.000000D+00  E= 1.493211D+00  Symmetry=a

 Vector   15  Occ=0.000000D+00  E= 1.694325D+00  Symmetry=a

 Vector   16  Occ=0.000000D+00  E= 1.856175D+00  Symmetry=a

 Vector   17  Occ=0.000000D+00  E= 1.867953D+00  Symmetry=a

 Vector   18  Occ=0.000000D+00  E= 2.256326D+00  Symmetry=a

         Total SCF energy =    -76.018112965218

 Vector    2  Occ=2.000000D+00  E=-1.321253D+00

 Vector    3  Occ=2.000000D+00  E=-7.119563D-01

 Vector    4  Occ=2.000000D+00  E=-5.640620D-01

 Vector    5  Occ=2.000000D+00  E=-5.091864D-01

 Vector    6  Occ=0.000000D+00  E=-2.780973D-02

 Vector    7  Occ=0.000000D+00  E=-2.539588D-02

 Vector    8  Occ=0.000000D+00  E=-1.407843D-02

 Vector    9  Occ=0.000000D+00  E= 4.716219D-01

 Vector   10  Occ=0.000000D+00  E= 5.142999D-01

 Vector   11  Occ=0.000000D+00  E= 1.037633D+00

 Vector   12  Occ=0.000000D+00  E= 1.092784D+00

 Vector   13  Occ=0.000000D+00  E= 1.448468D+00

 Vector   14  Occ=0.000000D+00  E= 1.493211D+00

 Vector   15  Occ=0.000000D+00  E= 1.694325D+00

       Multipole analysis of the density wrt the origin
       ------------------------------------------------

     L   x y z        total         open         nuclear
     -   - - -        -----         ----         -------
     0   0 0 0     -0.000000      0.000000     10.000000

     1   1 0 0      0.602979      0.000000     -0.000000
     1   0 1 0      0.433100      0.000000      0.000000
     1   0 0 1     -0.000000      0.000000      0.000000

     2   2 0 0     -4.033833      0.000000      2.679864
     2   1 1 0     -0.765302      0.000000     -1.341297
     2   1 0 1      0.000000      0.000000      0.000000
     2   0 2 0     -3.358534      0.000000      4.001674
     2   0 1 1      0.000000      0.000000      0.000000

 CCSD total energy / hartree       =       -76.110714225242177
 Total times  cpu:       51.4s     wall:       71.7s
