============================== echo of input deck ==============================
 echo
 start H2O
 title "H2O"

 memory total 24 gb

 geometry units bohr
 symmetry c1
        O  0.00000000  0.00000000  0.00000000
        H  0.00000000  1.954057  0.00000000
        H  1.72558000 -0.64860000  0.00000000
 end

 basis spherical
   * library cc-pVDZ
 end

 mcscf
   active  8
   actelec 10
   multiplicity 1
   maxiter 40
   vectors input h2o.mos
   vectors output h2o.mos
 end

 task mcscf

 scf
   vectors input h2o.mos
   vectors output h2o-trash.mos
   noscf
 end

 tce
   2eorb
   2emet 13
   ccsd
   maxiter 300
 end

 set tce:print_integrals T
 set tce:qorb 8
 set tce:qela 5
 set tce:qelb 5

# set tce:qducc T
# set tce:nactv 3
# set tce:nonhf T
# set tce:ducc_model 6

 set tce:printtol 0.02

 task tce
================================================================================

 Output coordinates in a.u. (scale by  1.000000000 to convert to a.u.)

  No.       Tag          Charge          X              Y              Z
 ---- ---------------- ---------- -------------- -------------- --------------
    1 O                    8.0000    -0.17255800    -0.13054570     0.00000000
    2 H                    1.0000    -0.17255800     1.82351130     0.00000000
    3 H                    1.0000     1.55302200    -0.77914570     0.00000000

 Vector    1  Occ=1.999991D+00  E=-2.054931D+01  Symmetry=a

 Vector    2  Occ=1.998712D+00  E=-1.319317D+00  Symmetry=a

 Vector    3  Occ=1.983386D+00  E=-7.095970D-01  Symmetry=a

 Vector    4  Occ=1.976145D+00  E=-5.632824D-01  Symmetry=a

 Vector    5  Occ=1.972442D+00  E=-5.089368D-01  Symmetry=a

 Vector    6  Occ=2.850721D-02  E=-2.822995D-02  Symmetry=a

 Vector    7  Occ=2.468753D-02  E=-2.543110D-02  Symmetry=a

 Vector    8  Occ=1.612896D-02  E=-1.406051D-02  Symmetry=a

 Vector    9  Occ=0.000000D+00  E= 4.726915D-01  Symmetry=a

 Vector   10  Occ=0.000000D+00  E= 5.146832D-01  Symmetry=a

 Vector   11  Occ=0.000000D+00  E= 1.037227D+00  Symmetry=a

 Vector   12  Occ=0.000000D+00  E= 1.095136D+00  Symmetry=a

 Vector   13  Occ=0.000000D+00  E= 1.447738D+00  Symmetry=a

 Vector   14  Occ=0.000000D+00  E= 1.494653D+00  Symmetry=a

 Vector   15  Occ=0.000000D+00  E= 1.693698D+00  Symmetry=a

 Vector   16  Occ=0.000000D+00  E= 1.851511D+00  Symmetry=a

 Vector   17  Occ=0.000000D+00  E= 1.867456D+00  Symmetry=a

 Vector   18  Occ=0.000000D+00  E= 2.239557D+00  Symmetry=a

         Total SCF energy =    -76.016684855493

 Vector    2  Occ=2.000000D+00  E=-1.319317D+00

 Vector    3  Occ=2.000000D+00  E=-7.095970D-01

 Vector    4  Occ=2.000000D+00  E=-5.632824D-01

 Vector    5  Occ=2.000000D+00  E=-5.089368D-01

 Vector    6  Occ=0.000000D+00  E=-2.822995D-02

 Vector    7  Occ=0.000000D+00  E=-2.543110D-02

 Vector    8  Occ=0.000000D+00  E=-1.406051D-02

 Vector    9  Occ=0.000000D+00  E= 4.726915D-01

 Vector   10  Occ=0.000000D+00  E= 5.146832D-01

 Vector   11  Occ=0.000000D+00  E= 1.037227D+00

 Vector   12  Occ=0.000000D+00  E= 1.095136D+00

 Vector   13  Occ=0.000000D+00  E= 1.447738D+00

 Vector   14  Occ=0.000000D+00  E= 1.494653D+00

 Vector   15  Occ=0.000000D+00  E= 1.693698D+00

       Multipole analysis of the density wrt the origin
       ------------------------------------------------

     L   x y z        total         open         nuclear
     -   - - -        -----         ----         -------
     0   0 0 0     -0.000000      0.000000     10.000000

     1   1 0 0      0.602381      0.000000     -0.000000
     1   0 1 0      0.435449      0.000000      0.000000
     1   0 0 1     -0.000000      0.000000      0.000000

     2   2 0 0     -4.041108      0.000000      2.679864
     2   1 1 0     -0.766763      0.000000     -1.344478
     2   1 0 1      0.000000      0.000000      0.000000
     2   0 2 0     -3.344640      0.000000      4.068599
     2   0 1 1      0.000000      0.000000      0.000000

 CCSD total energy / hartree       =       -76.109762469998643
 Total times  cpu:       50.0s     wall:       71.1s
