============================== echo of input deck ==============================
 echo
 start H2O
 title "H2O"

 memory total 24 gb

 geometry units bohr
 symmetry c1
        O  0.00000000  0.00000000  0.00000000
        H  0.00000000  2.01857775  0.00000000
        H  1.72558000 -0.64860000  0.00000000
 end

 basis spherical
   * library cc-pVDZ
 end

 mcscf
   active  8
   actelec 10
   multiplicity 1
   maxiter 40
   vectors input h2o.mos
   vectors output h2o.mos
 end

 task mcscf

 scf
   vectors input h2o.mos
   vectors output h2o-trash.mos
   noscf
 end

 tce
   2eorb
   2emet 13
   ccsd
   maxiter 300
 end

 set tce:print_integrals T
 set tce:qorb 8
 set tce:qela 5
 set tce:qelb 5

# set tce:qducc T
# set tce:nactv 3
# set tce:nonhf T
# set tce:ducc_model 6

 set tce:printtol 0.02

 task tce
================================================================================

 Output coordinates in a.u. (scale by  1.000000000 to convert to a.u.)

  No.       Tag          Charge          X              Y              Z
 ---- ---------------- ---------- -------------- -------------- --------------
    1 O                    8.0000    -0.17255800    -0.13699778     0.00000000
    2 H                    1.0000    -0.17255800     1.88157998     0.00000000
    3 H                    1.0000     1.55302200    -0.78559778     0.00000000

 Vector    1  Occ=1.999991D+00  E=-2.055171D+01  Symmetry=a

 Vector    2  Occ=1.998643D+00  E=-1.313068D+00  Symmetry=a

 Vector    3  Occ=1.983219D+00  E=-7.016437D-01  Symmetry=a

 Vector    4  Occ=1.975913D+00  E=-5.604926D-01  Symmetry=a

 Vector    5  Occ=1.969772D+00  E=-5.081805D-01  Symmetry=a

 Vector    6  Occ=3.128686D-02  E=-2.978513D-02  Symmetry=a

 Vector    7  Occ=2.491258D-02  E=-2.552077D-02  Symmetry=a

 Vector    8  Occ=1.626244D-02  E=-1.399170D-02  Symmetry=a

 Vector    9  Occ=0.000000D+00  E= 4.762346D-01  Symmetry=a

 Vector   10  Occ=0.000000D+00  E= 5.162275D-01  Symmetry=a

 Vector   11  Occ=0.000000D+00  E= 1.035772D+00  Symmetry=a

 Vector   12  Occ=0.000000D+00  E= 1.104602D+00  Symmetry=a

 Vector   13  Occ=0.000000D+00  E= 1.445518D+00  Symmetry=a

 Vector   14  Occ=0.000000D+00  E= 1.499720D+00  Symmetry=a

 Vector   15  Occ=0.000000D+00  E= 1.691411D+00  Symmetry=a

 Vector   16  Occ=0.000000D+00  E= 1.835025D+00  Symmetry=a

 Vector   17  Occ=0.000000D+00  E= 1.864306D+00  Symmetry=a

 Vector   18  Occ=0.000000D+00  E= 2.185764D+00  Symmetry=a

         Total SCF energy =    -76.010839157777

 Vector    2  Occ=2.000000D+00  E=-1.313068D+00

 Vector    3  Occ=2.000000D+00  E=-7.016437D-01

 Vector    4  Occ=2.000000D+00  E=-5.604926D-01

 Vector    5  Occ=2.000000D+00  E=-5.081805D-01

 Vector    6  Occ=0.000000D+00  E=-2.978513D-02

 Vector    7  Occ=0.000000D+00  E=-2.552077D-02

 Vector    8  Occ=0.000000D+00  E=-1.399170D-02

 Vector    9  Occ=0.000000D+00  E= 4.762346D-01

 Vector   10  Occ=0.000000D+00  E= 5.162275D-01

 Vector   11  Occ=0.000000D+00  E= 1.035772D+00

 Vector   12  Occ=0.000000D+00  E= 1.104602D+00

 Vector   13  Occ=0.000000D+00  E= 1.445518D+00

 Vector   14  Occ=0.000000D+00  E= 1.499720D+00

 Vector   15  Occ=0.000000D+00  E= 1.691411D+00

       Multipole analysis of the density wrt the origin
       ------------------------------------------------

     L   x y z        total         open         nuclear
     -   - - -        -----         ----         -------
     0   0 0 0     -0.000000      0.000000     10.000000

     1   1 0 0      0.600456      0.000000     -0.000000
     1   0 1 0      0.442760      0.000000     -0.000000
     1   0 0 1     -0.000000      0.000000      0.000000

     2   2 0 0     -4.066188      0.000000      2.679864
     2   1 1 0     -0.771616      0.000000     -1.355612
     2   1 0 1      0.000000      0.000000      0.000000
     2   0 2 0     -3.296021      0.000000      4.307654
     2   0 1 1      0.000000      0.000000      0.000000

 CCSD total energy / hartree       =       -76.105604474659742
 Total times  cpu:       55.8s     wall:       76.5s
