============================== echo of input deck ==============================
 echo
 start H2O
 title "H2O"

 memory total 24 gb

 geometry units bohr
 symmetry c1
        O  0.00000000  0.00000000  0.00000000
        H  0.00000000  2.138402  0.00000000
        H  1.72558000 -0.64860000  0.00000000
 end

 basis spherical
   * library cc-pVDZ
 end

 mcscf
   active  8
   actelec 10
   multiplicity 1
   maxiter 40
   vectors input h2o.mos
   vectors output h2o.mos
 end

 task mcscf

 scf
   vectors input h2o.mos
   vectors output h2o-trash.mos
   noscf
 end

 tce
   2eorb
   2emet 13
   ccsd
   maxiter 300
 end

 set tce:print_integrals T
 set tce:qorb 8
 set tce:qela 5
 set tce:qelb 5

# set tce:qducc T
# set tce:nactv 3
# set tce:nonhf T
# set tce:ducc_model 6

 set tce:printtol 0.02

 task tce
================================================================================

 Output coordinates in a.u. (scale by  1.000000000 to convert to a.u.)

  No.       Tag          Charge          X              Y              Z
 ---- ---------------- ---------- -------------- -------------- --------------
    1 O                    8.0000    -0.17255800    -0.14898020     0.00000000
    2 H                    1.0000    -0.17255800     1.98942180     0.00000000
    3 H                    1.0000     1.55302200    -0.79758020     0.00000000

 Vector    1  Occ=1.999991D+00  E=-2.055610D+01  Symmetry=a

 Vector    2  Occ=1.998508D+00  E=-1.303470D+00  Symmetry=a

 Vector    3  Occ=1.982959D+00  E=-6.882397D-01  Symmetry=a

 Vector    4  Occ=1.975510D+00  E=-5.549926D-01  Symmetry=a

 Vector    5  Occ=1.963916D+00  E=-5.072705D-01  Symmetry=a

 Vector    6  Occ=3.734233D-02  E=-3.296433D-02  Symmetry=a

 Vector    7  Occ=2.531296D-02  E=-2.563558D-02  Symmetry=a

 Vector    8  Occ=1.645910D-02  E=-1.384026D-02  Symmetry=a

 Vector    9  Occ=0.000000D+00  E= 4.818291D-01  Symmetry=a

 Vector   10  Occ=0.000000D+00  E= 5.200917D-01  Symmetry=a

 Vector   11  Occ=0.000000D+00  E= 1.033450D+00  Symmetry=a

 Vector   12  Occ=0.000000D+00  E= 1.126256D+00  Symmetry=a

 Vector   13  Occ=0.000000D+00  E= 1.442702D+00  Symmetry=a

 Vector   14  Occ=0.000000D+00  E= 1.509012D+00  Symmetry=a

 Vector   15  Occ=0.000000D+00  E= 1.686628D+00  Symmetry=a

 Vector   16  Occ=0.000000D+00  E= 1.804581D+00  Symmetry=a

 Vector   17  Occ=0.000000D+00  E= 1.847208D+00  Symmetry=a

 Vector   18  Occ=0.000000D+00  E= 2.109628D+00  Symmetry=a

         Total SCF energy =    -75.997294709786

 Vector    2  Occ=2.000000D+00  E=-1.303470D+00

 Vector    3  Occ=2.000000D+00  E=-6.882397D-01

 Vector    4  Occ=2.000000D+00  E=-5.549926D-01

 Vector    5  Occ=2.000000D+00  E=-5.072705D-01

 Vector    6  Occ=0.000000D+00  E=-3.296433D-02

 Vector    7  Occ=0.000000D+00  E=-2.563558D-02

 Vector    8  Occ=0.000000D+00  E=-1.384026D-02

 Vector    9  Occ=0.000000D+00  E= 4.818291D-01

 Vector   10  Occ=0.000000D+00  E= 5.200917D-01

 Vector   11  Occ=0.000000D+00  E= 1.033450D+00

 Vector   12  Occ=0.000000D+00  E= 1.126256D+00

 Vector   13  Occ=0.000000D+00  E= 1.442702D+00

 Vector   14  Occ=0.000000D+00  E= 1.509012D+00

 Vector   15  Occ=0.000000D+00  E= 1.686628D+00

       Multipole analysis of the density wrt the origin
       ------------------------------------------------

     L   x y z        total         open         nuclear
     -   - - -        -----         ----         -------
     0   0 0 0     -0.000000      0.000000     10.000000

     1   1 0 0      0.597414      0.000000     -0.000000
     1   0 1 0      0.452227      0.000000      0.000000
     1   0 0 1     -0.000000      0.000000      0.000000

     2   2 0 0     -4.111261      0.000000      2.679864
     2   1 1 0     -0.779171      0.000000     -1.376288
     2   1 0 1      0.000000      0.000000      0.000000
     2   0 2 0     -3.207453      0.000000      4.771494
     2   0 1 1      0.000000      0.000000      0.000000

 CCSD total energy / hartree       =       -76.095292597254087
 Total times  cpu:       50.6s     wall:       70.1s
