============================== echo of input deck ==============================
 echo
 start H2O
 title "H2O"

 memory total 24 gb

 geometry units bohr
 symmetry c1
        O  0.00000000  0.00000000  0.00000000
        H  0.00000000  2.3411815  0.00000000
        H  1.72558000 -0.64860000  0.00000000
 end

 basis spherical
   * library cc-pVDZ
 end

 mcscf
   active  8
   actelec 10
   multiplicity 1
   maxiter 40
   vectors input h2o.mos
   vectors output h2o.mos
 end

 task mcscf

 scf
   vectors input h2o.mos
   vectors output h2o-trash.mos
   noscf
 end

 tce
   2eorb
   2emet 13
   ccsd
   maxiter 300
 end

 set tce:print_integrals T
 set tce:qorb 8
 set tce:qela 5
 set tce:qelb 5

# set tce:qducc T
# set tce:nactv 3
# set tce:nonhf T
# set tce:ducc_model 6

 set tce:printtol 0.02

 task tce
================================================================================

 Output coordinates in a.u. (scale by  1.000000000 to convert to a.u.)

  No.       Tag          Charge          X              Y              Z
 ---- ---------------- ---------- -------------- -------------- --------------
    1 O                    8.0000    -0.17255800    -0.16925815     0.00000000
    2 H                    1.0000    -0.17255800     2.17192335     0.00000000
    3 H                    1.0000     1.55302200    -0.81785815     0.00000000

 Vector    1  Occ=1.999991D+00  E=-2.056358D+01  Symmetry=a

 Vector    2  Occ=1.998273D+00  E=-1.292321D+00  Symmetry=a

 Vector    3  Occ=1.982693D+00  E=-6.700744D-01  Symmetry=a

 Vector    4  Occ=1.974901D+00  E=-5.443321D-01  Symmetry=a

 Vector    5  Occ=1.950455D+00  E=-5.071938D-01  Symmetry=a

 Vector    6  Occ=5.114018D-02  E=-3.929769D-02  Symmetry=a

 Vector    7  Occ=2.592598D-02  E=-2.577769D-02  Symmetry=a

 Vector    8  Occ=1.662074D-02  E=-1.352913D-02  Symmetry=a

 Vector    9  Occ=0.000000D+00  E= 4.875833D-01  Symmetry=a

 Vector   10  Occ=0.000000D+00  E= 5.300891D-01  Symmetry=a

 Vector   11  Occ=0.000000D+00  E= 1.032252D+00  Symmetry=a

 Vector   12  Occ=0.000000D+00  E= 1.169280D+00  Symmetry=a

 Vector   13  Occ=0.000000D+00  E= 1.441281D+00  Symmetry=a

 Vector   14  Occ=0.000000D+00  E= 1.523399D+00  Symmetry=a

 Vector   15  Occ=0.000000D+00  E= 1.676388D+00  Symmetry=a

 Vector   16  Occ=0.000000D+00  E= 1.747276D+00  Symmetry=a

 Vector   17  Occ=0.000000D+00  E= 1.777326D+00  Symmetry=a

 Vector   18  Occ=0.000000D+00  E= 2.058930D+00  Symmetry=a

         Total SCF energy =    -75.969755595455

 Vector    2  Occ=2.000000D+00  E=-1.292321D+00

 Vector    3  Occ=2.000000D+00  E=-6.700744D-01

 Vector    4  Occ=2.000000D+00  E=-5.443321D-01

 Vector    5  Occ=2.000000D+00  E=-5.071938D-01

 Vector    6  Occ=0.000000D+00  E=-3.929769D-02

 Vector    7  Occ=0.000000D+00  E=-2.577769D-02

 Vector    8  Occ=0.000000D+00  E=-1.352913D-02

 Vector    9  Occ=0.000000D+00  E= 4.875833D-01

 Vector   10  Occ=0.000000D+00  E= 5.300891D-01

 Vector   11  Occ=0.000000D+00  E= 1.032252D+00

 Vector   12  Occ=0.000000D+00  E= 1.169280D+00

 Vector   13  Occ=0.000000D+00  E= 1.441281D+00

 Vector   14  Occ=0.000000D+00  E= 1.523399D+00

 Vector   15  Occ=0.000000D+00  E= 1.676388D+00

       Multipole analysis of the density wrt the origin
       ------------------------------------------------

     L   x y z        total         open         nuclear
     -   - - -        -----         ----         -------
     0   0 0 0     -0.000000      0.000000     10.000000

     1   1 0 0      0.593912      0.000000     -0.000000
     1   0 1 0      0.453759      0.000000      0.000000
     1   0 0 1     -0.000000      0.000000      0.000000

     2   2 0 0     -4.182171      0.000000      2.679864
     2   1 1 0     -0.787054      0.000000     -1.411280
     2   1 0 1      0.000000      0.000000      0.000000
     2   0 2 0     -3.072549      0.000000      5.615330
     2   0 1 1     -0.000000      0.000000      0.000000

 CCSD total energy / hartree       =       -76.073614652397524
 Total times  cpu:       50.5s     wall:       70.6s
