============================== echo of input deck ==============================
 echo
 start H2O
 title "H2O"

 memory total 24 gb

 geometry units bohr
 symmetry c1
        O  0.00000000  0.00000000  0.00000000
        H  0.00000000  2.359616  0.00000000
        H  1.72558000 -0.64860000  0.00000000
 end

 basis spherical
   * library cc-pVDZ
 end

 mcscf
   active  8
   actelec 10
   multiplicity 1
   maxiter 40
   vectors input h2o.mos
   vectors output h2o.mos
 end

 task mcscf

 scf
   vectors input h2o.mos
   vectors output h2o-trash.mos
   noscf
 end

 tce
   2eorb
   2emet 13
   ccsd
   maxiter 300
 end

 set tce:print_integrals T
 set tce:qorb 8
 set tce:qela 5
 set tce:qelb 5

# set tce:qducc T
# set tce:nactv 3
# set tce:nonhf T
# set tce:ducc_model 6

 set tce:printtol 0.02

 task tce
================================================================================

 Output coordinates in a.u. (scale by  1.000000000 to convert to a.u.)

  No.       Tag          Charge          X              Y              Z
 ---- ---------------- ---------- -------------- -------------- --------------
    1 O                    8.0000    -0.17255800    -0.17110160     0.00000000
    2 H                    1.0000    -0.17255800     2.18851440     0.00000000
    3 H                    1.0000     1.55302200    -0.81970160     0.00000000

 Vector    1  Occ=1.999991D+00  E=-2.056428D+01  Symmetry=a

 Vector    2  Occ=1.998252D+00  E=-1.291591D+00  Symmetry=a

 Vector    3  Occ=1.982681D+00  E=-6.687274D-01  Symmetry=a

 Vector    4  Occ=1.974851D+00  E=-5.432604D-01  Symmetry=a

 Vector    5  Occ=1.948945D+00  E=-5.072848D-01  Symmetry=a

 Vector    6  Occ=5.267903D-02  E=-3.995029D-02  Symmetry=a

 Vector    7  Occ=2.597645D-02  E=-2.578861D-02  Symmetry=a

 Vector    8  Occ=1.662397D-02  E=-1.349798D-02  Symmetry=a

 Vector    9  Occ=0.000000D+00  E= 4.878706D-01  Symmetry=a

 Vector   10  Occ=0.000000D+00  E= 5.312393D-01  Symmetry=a

 Vector   11  Occ=0.000000D+00  E= 1.032360D+00  Symmetry=a

 Vector   12  Occ=0.000000D+00  E= 1.173365D+00  Symmetry=a

 Vector   13  Occ=0.000000D+00  E= 1.441324D+00  Symmetry=a

 Vector   14  Occ=0.000000D+00  E= 1.524577D+00  Symmetry=a

 Vector   15  Occ=0.000000D+00  E= 1.675306D+00  Symmetry=a

 Vector   16  Occ=0.000000D+00  E= 1.740281D+00  Symmetry=a

 Vector   17  Occ=0.000000D+00  E= 1.770692D+00  Symmetry=a

 Vector   18  Occ=0.000000D+00  E= 2.058133D+00  Symmetry=a

         Total SCF energy =    -75.967095236046

 Vector    2  Occ=2.000000D+00  E=-1.291591D+00

 Vector    3  Occ=2.000000D+00  E=-6.687274D-01

 Vector    4  Occ=2.000000D+00  E=-5.432604D-01

 Vector    5  Occ=2.000000D+00  E=-5.072848D-01

 Vector    6  Occ=0.000000D+00  E=-3.995029D-02

 Vector    7  Occ=0.000000D+00  E=-2.578861D-02

 Vector    8  Occ=0.000000D+00  E=-1.349798D-02

 Vector    9  Occ=0.000000D+00  E= 4.878706D-01

 Vector   10  Occ=0.000000D+00  E= 5.312393D-01

 Vector   11  Occ=0.000000D+00  E= 1.032360D+00

 Vector   12  Occ=0.000000D+00  E= 1.173365D+00

 Vector   13  Occ=0.000000D+00  E= 1.441324D+00

 Vector   14  Occ=0.000000D+00  E= 1.524577D+00

 Vector   15  Occ=0.000000D+00  E= 1.675306D+00

       Multipole analysis of the density wrt the origin
       ------------------------------------------------

     L   x y z        total         open         nuclear
     -   - - -        -----         ----         -------
     0   0 0 0     -0.000000      0.000000     10.000000

     1   1 0 0      0.593692      0.000000     -0.000000
     1   0 1 0      0.452882      0.000000      0.000000
     1   0 0 1     -0.000000      0.000000      0.000000

     2   2 0 0     -4.188237      0.000000      2.679864
     2   1 1 0     -0.787426      0.000000     -1.414461
     2   1 0 1      0.000000      0.000000      0.000000
     2   0 2 0     -3.061781      0.000000      5.695712
     2   0 1 1     -0.000000      0.000000      0.000000

 CCSD total energy / hartree       =       -76.071519294316488
 Total times  cpu:       50.8s     wall:       70.8s
