============================== echo of input deck ==============================
 echo
 start H2O
 title "H2O"

 memory total 24 gb

 geometry units bohr
 symmetry c1
        O  0.00000000  0.00000000  0.00000000
        H  0.00000000  2.396485  0.00000000
        H  1.72558000 -0.64860000  0.00000000
 end

 basis spherical
   * library cc-pVDZ
 end

 mcscf
   active  8
   actelec 10
   multiplicity 1
   maxiter 40
   vectors input h2o.mos
   vectors output h2o.mos
 end

 task mcscf

 scf
   vectors input h2o.mos
   vectors output h2o-trash.mos
   noscf
 end

 tce
   2eorb
   2emet 13
   ccsd
   maxiter 300
 end

 set tce:print_integrals T
 set tce:qorb 8
 set tce:qela 5
 set tce:qelb 5

# set tce:qducc T
# set tce:nactv 3
# set tce:nonhf T
# set tce:ducc_model 6

 set tce:printtol 0.02

 task tce
================================================================================

 Output coordinates in a.u. (scale by  1.000000000 to convert to a.u.)

  No.       Tag          Charge          X              Y              Z
 ---- ---------------- ---------- -------------- -------------- --------------
    1 O                    8.0000    -0.17255800    -0.17478850     0.00000000
    2 H                    1.0000    -0.17255800     2.22169650     0.00000000
    3 H                    1.0000     1.55302200    -0.82338850     0.00000000

 Vector    1  Occ=1.999991D+00  E=-2.056569D+01  Symmetry=a

 Vector    2  Occ=1.998211D+00  E=-1.290258D+00  Symmetry=a

 Vector    3  Occ=1.982663D+00  E=-6.661885D-01  Symmetry=a

 Vector    4  Occ=1.974755D+00  E=-5.410587D-01  Symmetry=a

 Vector    5  Occ=1.945754D+00  E=-5.075148D-01  Symmetry=a

 Vector    6  Occ=5.592747D-02  E=-4.129964D-02  Symmetry=a

 Vector    7  Occ=2.607427D-02  E=-2.580946D-02  Symmetry=a

 Vector    8  Occ=1.662454D-02  E=-1.343469D-02  Symmetry=a

 Vector    9  Occ=0.000000D+00  E= 4.883254D-01  Symmetry=a

 Vector   10  Occ=0.000000D+00  E= 5.336486D-01  Symmetry=a

 Vector   11  Occ=0.000000D+00  E= 1.032681D+00  Symmetry=a

 Vector   12  Occ=0.000000D+00  E= 1.181507D+00  Symmetry=a

 Vector   13  Occ=0.000000D+00  E= 1.441483D+00  Symmetry=a

 Vector   14  Occ=0.000000D+00  E= 1.526850D+00  Symmetry=a

 Vector   15  Occ=0.000000D+00  E= 1.673065D+00  Symmetry=a

 Vector   16  Occ=0.000000D+00  E= 1.724640D+00  Symmetry=a

 Vector   17  Occ=0.000000D+00  E= 1.758688D+00  Symmetry=a

 Vector   18  Occ=0.000000D+00  E= 2.057725D+00  Symmetry=a

         Total SCF energy =    -75.961731787845

 Vector    2  Occ=2.000000D+00  E=-1.290258D+00

 Vector    3  Occ=2.000000D+00  E=-6.661885D-01

 Vector    4  Occ=2.000000D+00  E=-5.410587D-01

 Vector    5  Occ=2.000000D+00  E=-5.075148D-01

 Vector    6  Occ=0.000000D+00  E=-4.129964D-02

 Vector    7  Occ=0.000000D+00  E=-2.580946D-02

 Vector    8  Occ=0.000000D+00  E=-1.343469D-02

 Vector    9  Occ=0.000000D+00  E= 4.883254D-01

 Vector   10  Occ=0.000000D+00  E= 5.336486D-01

 Vector   11  Occ=0.000000D+00  E= 1.032681D+00

 Vector   12  Occ=0.000000D+00  E= 1.181507D+00

 Vector   13  Occ=0.000000D+00  E= 1.441483D+00

 Vector   14  Occ=0.000000D+00  E= 1.526850D+00

 Vector   15  Occ=0.000000D+00  E= 1.673065D+00

       Multipole analysis of the density wrt the origin
       ------------------------------------------------

     L   x y z        total         open         nuclear
     -   - - -        -----         ----         -------
     0   0 0 0     -0.000000      0.000000     10.000000

     1   1 0 0      0.593299      0.000000     -0.000000
     1   0 1 0      0.450585      0.000000      0.000000
     1   0 0 1     -0.000000      0.000000      0.000000

     2   2 0 0     -4.200163      0.000000      2.679864
     2   1 1 0     -0.787984      0.000000     -1.420823
     2   1 0 1      0.000000      0.000000      0.000000
     2   0 2 0     -3.041198      0.000000      5.858312
     2   0 1 1     -0.000000      0.000000      0.000000

 CCSD total energy / hartree       =       -76.067305629029960
 Total times  cpu:       51.2s     wall:       71.3s
