============================== echo of input deck ==============================
 echo
 start H2O
 title "H2O"

 memory total 24 gb

 geometry units bohr
 symmetry c1
        O  0.00000000  0.00000000  0.00000000
        H  0.00000000  2.4517885  0.00000000
        H  1.72558000 -0.64860000  0.00000000
 end

 basis spherical
   * library cc-pVDZ
 end

 mcscf
   active  8
   actelec 10
   multiplicity 1
   maxiter 40
   vectors input h2o.mos
   vectors output h2o.mos
 end

 task mcscf

 scf
   vectors input h2o.mos
   vectors output h2o-trash.mos
   noscf
 end

 tce
   2eorb
   2emet 13
   ccsd
   maxiter 300
 end

 set tce:print_integrals T
 set tce:qorb 8
 set tce:qela 5
 set tce:qelb 5

# set tce:qducc T
# set tce:nactv 3
# set tce:nonhf T
# set tce:ducc_model 6

 set tce:printtol 0.02

 task tce
================================================================================

 Output coordinates in a.u. (scale by  1.000000000 to convert to a.u.)

  No.       Tag          Charge          X              Y              Z
 ---- ---------------- ---------- -------------- -------------- --------------
    1 O                    8.0000    -0.17255800    -0.18031885     0.00000000
    2 H                    1.0000    -0.17255800     2.27146965     0.00000000
    3 H                    1.0000     1.55302200    -0.82891885     0.00000000

 Vector    1  Occ=1.999991D+00  E=-2.056786D+01  Symmetry=a

 Vector    2  Occ=1.998153D+00  E=-1.288567D+00  Symmetry=a

 Vector    3  Occ=1.982653D+00  E=-6.627686D-01  Symmetry=a

 Vector    4  Occ=1.974619D+00  E=-5.376054D-01  Symmetry=a

 Vector    5  Occ=1.940501D+00  E=-5.079792D-01  Symmetry=a

 Vector    6  Occ=6.126031D-02  E=-4.344172D-02  Symmetry=a

 Vector    7  Occ=2.621273D-02  E=-2.583834D-02  Symmetry=a

 Vector    8  Occ=1.661065D-02  E=-1.333780D-02  Symmetry=a

 Vector    9  Occ=0.000000D+00  E= 4.887194D-01  Symmetry=a

 Vector   10  Occ=0.000000D+00  E= 5.375214D-01  Symmetry=a

 Vector   11  Occ=0.000000D+00  E= 1.033426D+00  Symmetry=a

 Vector   12  Occ=0.000000D+00  E= 1.193532D+00  Symmetry=a

 Vector   13  Occ=0.000000D+00  E= 1.441895D+00  Symmetry=a

 Vector   14  Occ=0.000000D+00  E= 1.530042D+00  Symmetry=a

 Vector   15  Occ=0.000000D+00  E= 1.669514D+00  Symmetry=a

 Vector   16  Occ=0.000000D+00  E= 1.698064D+00  Symmetry=a

 Vector   17  Occ=0.000000D+00  E= 1.743415D+00  Symmetry=a

 Vector   18  Occ=0.000000D+00  E= 2.059438D+00  Symmetry=a

         Total SCF energy =    -75.953608792947

 Vector    2  Occ=2.000000D+00  E=-1.288567D+00

 Vector    3  Occ=2.000000D+00  E=-6.627686D-01

 Vector    4  Occ=2.000000D+00  E=-5.376054D-01

 Vector    5  Occ=2.000000D+00  E=-5.079792D-01

 Vector    6  Occ=0.000000D+00  E=-4.344172D-02

 Vector    7  Occ=0.000000D+00  E=-2.583834D-02

 Vector    8  Occ=0.000000D+00  E=-1.333780D-02

 Vector    9  Occ=0.000000D+00  E= 4.887194D-01

 Vector   10  Occ=0.000000D+00  E= 5.375214D-01

 Vector   11  Occ=0.000000D+00  E= 1.033426D+00

 Vector   12  Occ=0.000000D+00  E= 1.193532D+00

 Vector   13  Occ=0.000000D+00  E= 1.441895D+00

 Vector   14  Occ=0.000000D+00  E= 1.530042D+00

 Vector   15  Occ=0.000000D+00  E= 1.669514D+00

       Multipole analysis of the density wrt the origin
       ------------------------------------------------

     L   x y z        total         open         nuclear
     -   - - -        -----         ----         -------
     0   0 0 0     -0.000000      0.000000     10.000000

     1   1 0 0      0.592828      0.000000     -0.000000
     1   0 1 0      0.445768      0.000000      0.000000
     1   0 0 1      0.000000      0.000000      0.000000

     2   2 0 0     -4.217515      0.000000      2.679864
     2   1 1 0     -0.788339      0.000000     -1.430366
     2   1 0 1      0.000000      0.000000      0.000000
     2   0 2 0     -3.012910      0.000000      6.106800
     2   0 1 1     -0.000000      0.000000      0.000000

 CCSD total energy / hartree       =       -76.060961095816239
 Total times  cpu:       51.5s     wall:       71.7s
