============================== echo of input deck ==============================
 echo
 start H2O
 title "H2O"

 memory total 24 gb

 geometry units bohr
 symmetry c1
        O  0.00000000  0.00000000  0.00000000
        H  0.00000000  2.470223  0.00000000
        H  1.72558000 -0.64860000  0.00000000
 end

 basis spherical
   * library cc-pVDZ
 end

 mcscf
   active  8
   actelec 10
   multiplicity 1
   maxiter 40
   vectors input h2o.mos
   vectors output h2o.mos
 end

 task mcscf

 scf
   vectors input h2o.mos
   vectors output h2o-trash.mos
   noscf
 end

 tce
   2eorb
   2emet 13
   ccsd
   maxiter 300
 end

 set tce:print_integrals T
 set tce:qorb 8
 set tce:qela 5
 set tce:qelb 5

# set tce:qducc T
# set tce:nactv 3
# set tce:nonhf T
# set tce:ducc_model 6

 set tce:printtol 0.02

 task tce
================================================================================

 Output coordinates in a.u. (scale by  1.000000000 to convert to a.u.)

  No.       Tag          Charge          X              Y              Z
 ---- ---------------- ---------- -------------- -------------- --------------
    1 O                    8.0000    -0.17255800    -0.18216230     0.00000000
    2 H                    1.0000    -0.17255800     2.28806070     0.00000000
    3 H                    1.0000     1.55302200    -0.83076230     0.00000000

 Vector    1  Occ=1.999992D+00  E=-2.056859D+01  Symmetry=a

 Vector    2  Occ=1.998134D+00  E=-1.288081D+00  Symmetry=a

 Vector    3  Occ=1.982653D+00  E=-6.617317D-01  Symmetry=a

 Vector    4  Occ=1.974576D+00  E=-5.364129D-01  Symmetry=a

 Vector    5  Occ=1.938617D+00  E=-5.081654D-01  Symmetry=a

 Vector    6  Occ=6.316970D-02  E=-4.418923D-02  Symmetry=a

 Vector    7  Occ=2.625656D-02  E=-2.584733D-02  Symmetry=a

 Vector    8  Occ=1.660211D-02  E=-1.330511D-02  Symmetry=a

 Vector    9  Occ=0.000000D+00  E= 4.887771D-01  Symmetry=a

 Vector   10  Occ=0.000000D+00  E= 5.388773D-01  Symmetry=a

 Vector   11  Occ=0.000000D+00  E= 1.033743D+00  Symmetry=a

 Vector   12  Occ=0.000000D+00  E= 1.197460D+00  Symmetry=a

 Vector   13  Occ=0.000000D+00  E= 1.442075D+00  Symmetry=a

 Vector   14  Occ=0.000000D+00  E= 1.531044D+00  Symmetry=a

 Vector   15  Occ=0.000000D+00  E= 1.668281D+00  Symmetry=a

 Vector   16  Occ=0.000000D+00  E= 1.688732D+00  Symmetry=a

 Vector   17  Occ=0.000000D+00  E= 1.738830D+00  Symmetry=a

 Vector   18  Occ=0.000000D+00  E= 2.060484D+00  Symmetry=a

         Total SCF energy =    -75.950887289347

 Vector    2  Occ=2.000000D+00  E=-1.288081D+00

 Vector    3  Occ=2.000000D+00  E=-6.617317D-01

 Vector    4  Occ=2.000000D+00  E=-5.364129D-01

 Vector    5  Occ=2.000000D+00  E=-5.081654D-01

 Vector    6  Occ=0.000000D+00  E=-4.418923D-02

 Vector    7  Occ=0.000000D+00  E=-2.584733D-02

 Vector    8  Occ=0.000000D+00  E=-1.330511D-02

 Vector    9  Occ=0.000000D+00  E= 4.887771D-01

 Vector   10  Occ=0.000000D+00  E= 5.388773D-01

 Vector   11  Occ=0.000000D+00  E= 1.033743D+00

 Vector   12  Occ=0.000000D+00  E= 1.197460D+00

 Vector   13  Occ=0.000000D+00  E= 1.442075D+00

 Vector   14  Occ=0.000000D+00  E= 1.531044D+00

 Vector   15  Occ=0.000000D+00  E= 1.668281D+00

       Multipole analysis of the density wrt the origin
       ------------------------------------------------

     L   x y z        total         open         nuclear
     -   - - -        -----         ----         -------
     0   0 0 0     -0.000000      0.000000     10.000000

     1   1 0 0      0.592702      0.000000     -0.000000
     1   0 1 0      0.443793      0.000000      0.000000
     1   0 0 1      0.000000      0.000000      0.000000

     2   2 0 0     -4.223151      0.000000      2.679864
     2   1 1 0     -0.788326      0.000000     -1.433547
     2   1 0 1      0.000000      0.000000      0.000000
     2   0 2 0     -3.004220      0.000000      6.190853
     2   0 1 1     -0.000000      0.000000      0.000000

 CCSD total energy / hartree       =       -76.058847937410860
 Total times  cpu:       51.5s     wall:       71.7s
