============================== echo of input deck ==============================
 echo
 start H2O
 title "H2O"

 memory total 24 gb

 geometry units bohr
 symmetry c1
        O  0.00000000  0.00000000  0.00000000
        H  0.00000000  2.4886575  0.00000000
        H  1.72558000 -0.64860000  0.00000000
 end

 basis spherical
   * library cc-pVDZ
 end

 mcscf
   active  8
   actelec 10
   multiplicity 1
   maxiter 40
   vectors input h2o.mos
   vectors output h2o.mos
 end

 task mcscf

 scf
   vectors input h2o.mos
   vectors output h2o-trash.mos
   noscf
 end

 tce
   2eorb
   2emet 13
   ccsd
   maxiter 300
 end

 set tce:print_integrals T
 set tce:qorb 8
 set tce:qela 5
 set tce:qelb 5

# set tce:qducc T
# set tce:nactv 3
# set tce:nonhf T
# set tce:ducc_model 6

 set tce:printtol 0.02

 task tce
================================================================================

 Output coordinates in a.u. (scale by  1.000000000 to convert to a.u.)

  No.       Tag          Charge          X              Y              Z
 ---- ---------------- ---------- -------------- -------------- --------------
    1 O                    8.0000    -0.17255800    -0.18400575     0.00000000
    2 H                    1.0000    -0.17255800     2.30465175     0.00000000
    3 H                    1.0000     1.55302200    -0.83260575     0.00000000

 Vector    1  Occ=1.999992D+00  E=-2.056932D+01  Symmetry=a

 Vector    2  Occ=1.998116D+00  E=-1.287633D+00  Symmetry=a

 Vector    3  Occ=1.982657D+00  E=-6.607460D-01  Symmetry=a

 Vector    4  Occ=1.974534D+00  E=-5.351993D-01  Symmetry=a

 Vector    5  Occ=1.936662D+00  E=-5.083672D-01  Symmetry=a

 Vector    6  Occ=6.514880D-02  E=-4.495431D-02  Symmetry=a

 Vector    7  Occ=2.629917D-02  E=-2.585601D-02  Symmetry=a

 Vector    8  Occ=1.659162D-02  E=-1.327228D-02  Symmetry=a

 Vector    9  Occ=0.000000D+00  E= 4.887995D-01  Symmetry=a

 Vector   10  Occ=0.000000D+00  E= 5.402639D-01  Symmetry=a

 Vector   11  Occ=0.000000D+00  E= 1.034092D+00  Symmetry=a

 Vector   12  Occ=0.000000D+00  E= 1.201336D+00  Symmetry=a

 Vector   13  Occ=0.000000D+00  E= 1.442274D+00  Symmetry=a

 Vector   14  Occ=0.000000D+00  E= 1.532013D+00  Symmetry=a

 Vector   15  Occ=0.000000D+00  E= 1.667025D+00  Symmetry=a

 Vector   16  Occ=0.000000D+00  E= 1.679286D+00  Symmetry=a

 Vector   17  Occ=0.000000D+00  E= 1.734420D+00  Symmetry=a

 Vector   18  Occ=0.000000D+00  E= 2.061715D+00  Symmetry=a

         Total SCF energy =    -75.948161436085

 Vector    2  Occ=2.000000D+00  E=-1.287633D+00

 Vector    3  Occ=2.000000D+00  E=-6.607460D-01

 Vector    4  Occ=2.000000D+00  E=-5.351993D-01

 Vector    5  Occ=2.000000D+00  E=-5.083672D-01

 Vector    6  Occ=0.000000D+00  E=-4.495431D-02

 Vector    7  Occ=0.000000D+00  E=-2.585601D-02

 Vector    8  Occ=0.000000D+00  E=-1.327228D-02

 Vector    9  Occ=0.000000D+00  E= 4.887995D-01

 Vector   10  Occ=0.000000D+00  E= 5.402639D-01

 Vector   11  Occ=0.000000D+00  E= 1.034092D+00

 Vector   12  Occ=0.000000D+00  E= 1.201336D+00

 Vector   13  Occ=0.000000D+00  E= 1.442274D+00

 Vector   14  Occ=0.000000D+00  E= 1.532013D+00

 Vector   15  Occ=0.000000D+00  E= 1.667025D+00

       Multipole analysis of the density wrt the origin
       ------------------------------------------------

     L   x y z        total         open         nuclear
     -   - - -        -----         ----         -------
     0   0 0 0     -0.000000      0.000000     10.000000

     1   1 0 0      0.592591      0.000000     -0.000000
     1   0 1 0      0.441632      0.000000     -0.000000
     1   0 0 1      0.000000      0.000000      0.000000

     2   2 0 0     -4.228710      0.000000      2.679864
     2   1 1 0     -0.788246      0.000000     -1.436728
     2   1 0 1      0.000000      0.000000      0.000000
     2   0 2 0     -2.995920      0.000000      6.275517
     2   0 1 1     -0.000000      0.000000      0.000000

 CCSD total energy / hartree       =       -76.056738689043527
 Total times  cpu:       51.0s     wall:       71.6s
