============================== echo of input deck ==============================
 echo
 start H2O
 title "H2O"

 memory total 24 gb

 geometry units bohr
 symmetry c1
        O  0.00000000  0.00000000  0.00000000
        H  0.00000000  2.507092  0.00000000
        H  1.72558000 -0.64860000  0.00000000
 end

 basis spherical
   * library cc-pVDZ
 end

 mcscf
   active  8
   actelec 10
   multiplicity 1
   maxiter 40
   vectors input h2o.mos
   vectors output h2o.mos
 end

 task mcscf

 scf
   vectors input h2o.mos
   vectors output h2o-trash.mos
   noscf
 end

 tce
   2eorb
   2emet 13
   ccsd
   maxiter 300
 end

 set tce:print_integrals T
 set tce:qorb 8
 set tce:qela 5
 set tce:qelb 5

# set tce:qducc T
# set tce:nactv 3
# set tce:nonhf T
# set tce:ducc_model 6

 set tce:printtol 0.02

 task tce
================================================================================

 Output coordinates in a.u. (scale by  1.000000000 to convert to a.u.)

  No.       Tag          Charge          X              Y              Z
 ---- ---------------- ---------- -------------- -------------- --------------
    1 O                    8.0000    -0.17255800    -0.18584920     0.00000000
    2 H                    1.0000    -0.17255800     2.32124280     0.00000000
    3 H                    1.0000     1.55302200    -0.83444920     0.00000000

 Vector    1  Occ=1.999992D+00  E=-2.057006D+01  Symmetry=a

 Vector    2  Occ=1.998098D+00  E=-1.287223D+00  Symmetry=a

 Vector    3  Occ=1.982662D+00  E=-6.598111D-01  Symmetry=a

 Vector    4  Occ=1.974494D+00  E=-5.339644D-01  Symmetry=a

 Vector    5  Occ=1.934635D+00  E=-5.085843D-01  Symmetry=a

 Vector    6  Occ=6.719989D-02  E=-4.573744D-02  Symmetry=a

 Vector    7  Occ=2.634055D-02  E=-2.586439D-02  Symmetry=a

 Vector    8  Occ=1.657922D-02  E=-1.323934D-02  Symmetry=a

 Vector    9  Occ=0.000000D+00  E= 4.887875D-01  Symmetry=a

 Vector   10  Occ=0.000000D+00  E= 5.416802D-01  Symmetry=a

 Vector   11  Occ=0.000000D+00  E= 1.034474D+00  Symmetry=a

 Vector   12  Occ=0.000000D+00  E= 1.205151D+00  Symmetry=a

 Vector   13  Occ=0.000000D+00  E= 1.442493D+00  Symmetry=a

 Vector   14  Occ=0.000000D+00  E= 1.532949D+00  Symmetry=a

 Vector   15  Occ=0.000000D+00  E= 1.665746D+00  Symmetry=a

 Vector   16  Occ=0.000000D+00  E= 1.669783D+00  Symmetry=a

 Vector   17  Occ=0.000000D+00  E= 1.730154D+00  Symmetry=a

 Vector   18  Occ=0.000000D+00  E= 2.063107D+00  Symmetry=a

         Total SCF energy =    -75.945432629682

 Vector    2  Occ=2.000000D+00  E=-1.287223D+00

 Vector    3  Occ=2.000000D+00  E=-6.598111D-01

 Vector    4  Occ=2.000000D+00  E=-5.339644D-01

 Vector    5  Occ=2.000000D+00  E=-5.085843D-01

 Vector    6  Occ=0.000000D+00  E=-4.573744D-02

 Vector    7  Occ=0.000000D+00  E=-2.586439D-02

 Vector    8  Occ=0.000000D+00  E=-1.323934D-02

 Vector    9  Occ=0.000000D+00  E= 4.887875D-01

 Vector   10  Occ=0.000000D+00  E= 5.416802D-01

 Vector   11  Occ=0.000000D+00  E= 1.034474D+00

 Vector   12  Occ=0.000000D+00  E= 1.205151D+00

 Vector   13  Occ=0.000000D+00  E= 1.442493D+00

 Vector   14  Occ=0.000000D+00  E= 1.532949D+00

 Vector   15  Occ=0.000000D+00  E= 1.665746D+00

       Multipole analysis of the density wrt the origin
       ------------------------------------------------

     L   x y z        total         open         nuclear
     -   - - -        -----         ----         -------
     0   0 0 0     -0.000000      0.000000     10.000000

     1   1 0 0      0.592496      0.000000     -0.000000
     1   0 1 0      0.439285      0.000000     -0.000000
     1   0 0 1     -0.000000      0.000000      0.000000

     2   2 0 0     -4.234192      0.000000      2.679864
     2   1 1 0     -0.788099      0.000000     -1.439909
     2   1 0 1      0.000000      0.000000      0.000000
     2   0 2 0     -2.988020      0.000000      6.360793
     2   0 1 1     -0.000000      0.000000      0.000000

 CCSD total energy / hartree       =       -76.054635045471713
 Total times  cpu:       51.4s     wall:       71.6s
