============================== echo of input deck ==============================
 echo
 start H2O
 title "H2O"

 memory total 24 gb

 geometry units bohr
 symmetry c1
        O  0.00000000  0.00000000  0.00000000
        H  0.00000000  2.543961  0.00000000
        H  1.72558000 -0.64860000  0.00000000
 end

 basis spherical
   * library cc-pVDZ
 end

 mcscf
   active  8
   actelec 10
   multiplicity 1
   maxiter 40
   vectors input h2o.mos
   vectors output h2o.mos
 end

 task mcscf

 scf
   vectors input h2o.mos
   vectors output h2o-trash.mos
   noscf
 end

 tce
   2eorb
   2emet 13
   ccsd
   maxiter 300
 end

 set tce:print_integrals T
 set tce:qorb 8
 set tce:qela 5
 set tce:qelb 5

# set tce:qducc T
# set tce:nactv 3
# set tce:nonhf T
# set tce:ducc_model 6

 set tce:printtol 0.02

 task tce
================================================================================

 Output coordinates in a.u. (scale by  1.000000000 to convert to a.u.)

  No.       Tag          Charge          X              Y              Z
 ---- ---------------- ---------- -------------- -------------- --------------
    1 O                    8.0000    -0.17255800    -0.18953610     0.00000000
    2 H                    1.0000    -0.17255800     2.35442490     0.00000000
    3 H                    1.0000     1.55302200    -0.83813610     0.00000000

 Vector    1  Occ=1.999992D+00  E=-2.057156D+01  Symmetry=a

 Vector    2  Occ=1.998065D+00  E=-1.286508D+00  Symmetry=a

 Vector    3  Occ=1.982679D+00  E=-6.580919D-01  Symmetry=a

 Vector    4  Occ=1.974417D+00  E=-5.314303D-01  Symmetry=a

 Vector    5  Occ=1.930352D+00  E=-5.090637D-01  Symmetry=a

 Vector    6  Occ=7.152708D-02  E=-4.735973D-02  Symmetry=a

 Vector    7  Occ=2.641950D-02  E=-2.588024D-02  Symmetry=a

 Vector    8  Occ=1.654875D-02  E=-1.317327D-02  Symmetry=a

 Vector    9  Occ=0.000000D+00  E= 4.886639D-01  Symmetry=a

 Vector   10  Occ=0.000000D+00  E= 5.445970D-01  Symmetry=a

 Vector   11  Occ=0.000000D+00  E= 1.035332D+00  Symmetry=a

 Vector   12  Occ=0.000000D+00  E= 1.212569D+00  Symmetry=a

 Vector   13  Occ=0.000000D+00  E= 1.442985D+00  Symmetry=a

 Vector   14  Occ=0.000000D+00  E= 1.534716D+00  Symmetry=a

 Vector   15  Occ=0.000000D+00  E= 1.650772D+00  Symmetry=a

 Vector   16  Occ=0.000000D+00  E= 1.663119D+00  Symmetry=a

 Vector   17  Occ=0.000000D+00  E= 1.721971D+00  Symmetry=a

 Vector   18  Occ=0.000000D+00  E= 2.066275D+00  Symmetry=a

         Total SCF energy =    -75.939971298192

 Vector    2  Occ=2.000000D+00  E=-1.286508D+00

 Vector    3  Occ=2.000000D+00  E=-6.580919D-01

 Vector    4  Occ=2.000000D+00  E=-5.314303D-01

 Vector    5  Occ=2.000000D+00  E=-5.090637D-01

 Vector    6  Occ=0.000000D+00  E=-4.735973D-02

 Vector    7  Occ=0.000000D+00  E=-2.588024D-02

 Vector    8  Occ=0.000000D+00  E=-1.317327D-02

 Vector    9  Occ=0.000000D+00  E= 4.886639D-01

 Vector   10  Occ=0.000000D+00  E= 5.445970D-01

 Vector   11  Occ=0.000000D+00  E= 1.035332D+00

 Vector   12  Occ=0.000000D+00  E= 1.212569D+00

 Vector   13  Occ=0.000000D+00  E= 1.442985D+00

 Vector   14  Occ=0.000000D+00  E= 1.534716D+00

 Vector   15  Occ=0.000000D+00  E= 1.650772D+00

       Multipole analysis of the density wrt the origin
       ------------------------------------------------

     L   x y z        total         open         nuclear
     -   - - -        -----         ----         -------
     0   0 0 0     -0.000000      0.000000     10.000000

     1   1 0 0      0.592350      0.000000     -0.000000
     1   0 1 0      0.434037      0.000000     -0.000000
     1   0 0 1     -0.000000      0.000000      0.000000

     2   2 0 0     -4.244919      0.000000      2.679864
     2   1 1 0     -0.787601      0.000000     -1.446271
     2   1 0 1      0.000000      0.000000      0.000000
     2   0 2 0     -2.973458      0.000000      6.533180
     2   0 1 1     -0.000000      0.000000      0.000000

 CCSD total energy / hartree       =       -76.050450898625826
 Total times  cpu:       51.7s     wall:       72.0s
