============================== echo of input deck ==============================
 echo
 start H2O
 title "H2O"

 memory total 24 gb

 geometry units bohr
 symmetry c1
        O  0.00000000  0.00000000  0.00000000
        H  0.00000000  2.6361335  0.00000000
        H  1.72558000 -0.64860000  0.00000000
 end

 basis spherical
   * library cc-pVDZ
 end

 mcscf
   active  8
   actelec 10
   multiplicity 1
   maxiter 40
   vectors input h2o.mos
   vectors output h2o.mos
 end

 task mcscf

 scf
   vectors input h2o.mos
   vectors output h2o-trash.mos
   noscf
 end

 tce
   2eorb
   2emet 13
   ccsd
   maxiter 300
 end

 set tce:print_integrals T
 set tce:qorb 8
 set tce:qela 5
 set tce:qelb 5

# set tce:qducc T
# set tce:nactv 3
# set tce:nonhf T
# set tce:ducc_model 6

 set tce:printtol 0.02

 task tce
================================================================================

 Output coordinates in a.u. (scale by  1.000000000 to convert to a.u.)

  No.       Tag          Charge          X              Y              Z
 ---- ---------------- ---------- -------------- -------------- --------------
    1 O                    8.0000    -0.17255800    -0.19875335     0.00000000
    2 H                    1.0000    -0.17255800     2.43738015     0.00000000
    3 H                    1.0000     1.55302200    -0.84735335     0.00000000

 Vector    1  Occ=1.999992D+00  E=-2.057545D+01  Symmetry=a

 Vector    2  Occ=1.997995D+00  E=-1.285346D+00  Symmetry=a

 Vector    3  Occ=1.982761D+00  E=-6.546823D-01  Symmetry=a

 Vector    4  Occ=1.974249D+00  E=-5.247323D-01  Symmetry=a

 Vector    5  Occ=1.918216D+00  E=-5.105579D-01  Symmetry=a

 Vector    6  Occ=8.375172D-02  E=-5.176856D-02  Symmetry=a

 Vector    7  Occ=2.659385D-02  E=-2.591539D-02  Symmetry=a

 Vector    8  Occ=1.644123D-02  E=-1.300775D-02  Symmetry=a

 Vector    9  Occ=0.000000D+00  E= 4.878222D-01  Symmetry=a

 Vector   10  Occ=0.000000D+00  E= 5.523679D-01  Symmetry=a

 Vector   11  Occ=0.000000D+00  E= 1.037981D+00  Symmetry=a

 Vector   12  Occ=0.000000D+00  E= 1.229643D+00  Symmetry=a

 Vector   13  Occ=0.000000D+00  E= 1.444459D+00  Symmetry=a

 Vector   14  Occ=0.000000D+00  E= 1.538411D+00  Symmetry=a

 Vector   15  Occ=0.000000D+00  E= 1.604579D+00  Symmetry=a

 Vector   16  Occ=0.000000D+00  E= 1.656165D+00  Symmetry=a

 Vector   17  Occ=0.000000D+00  E= 1.702971D+00  Symmetry=a

 Vector   18  Occ=0.000000D+00  E= 2.075518D+00  Symmetry=a

         Total SCF energy =    -75.926349402427

 Vector    2  Occ=2.000000D+00  E=-1.285346D+00

 Vector    3  Occ=2.000000D+00  E=-6.546823D-01

 Vector    4  Occ=2.000000D+00  E=-5.247323D-01

 Vector    5  Occ=2.000000D+00  E=-5.105579D-01

 Vector    6  Occ=0.000000D+00  E=-5.176856D-02

 Vector    7  Occ=0.000000D+00  E=-2.591539D-02

 Vector    8  Occ=0.000000D+00  E=-1.300775D-02

 Vector    9  Occ=0.000000D+00  E= 4.878222D-01

 Vector   10  Occ=0.000000D+00  E= 5.523679D-01

 Vector   11  Occ=0.000000D+00  E= 1.037981D+00

 Vector   12  Occ=0.000000D+00  E= 1.229643D+00

 Vector   13  Occ=0.000000D+00  E= 1.444459D+00

 Vector   14  Occ=0.000000D+00  E= 1.538411D+00

 Vector   15  Occ=0.000000D+00  E= 1.604579D+00

       Multipole analysis of the density wrt the origin
       ------------------------------------------------

     L   x y z        total         open         nuclear
     -   - - -        -----         ----         -------
     0   0 0 0     -0.000000      0.000000     10.000000

     1   1 0 0      0.592240      0.000000     -0.000000
     1   0 1 0      0.417792      0.000000      0.000000
     1   0 0 1     -0.000000      0.000000      0.000000

     2   2 0 0     -4.270341      0.000000      2.679864
     2   1 1 0     -0.785169      0.000000     -1.462176
     2   1 0 1      0.000000      0.000000      0.000000
     2   0 2 0     -2.944552      0.000000      6.974853
     2   0 1 1     -0.000000      0.000000      0.000000

 CCSD total energy / hartree       =       -76.040190539142429
 Total times  cpu:       51.1s     wall:       72.2s
