============================== echo of input deck ==============================
 echo
 start H2O
 title "H2O"

 memory total 24 gb

 geometry units bohr
 symmetry c1
        O  0.00000000  0.00000000  0.00000000
        H  0.00000000  2.654568  0.00000000
        H  1.72558000 -0.64860000  0.00000000
 end

 basis spherical
   * library cc-pVDZ
 end

 mcscf
   active  8
   actelec 10
   multiplicity 1
   maxiter 40
   vectors input h2o.mos
   vectors output h2o.mos
 end

 task mcscf

 scf
   vectors input h2o.mos
   vectors output h2o-trash.mos
   noscf
 end

 tce
   2eorb
   2emet 13
   ccsd
   maxiter 300
 end

 set tce:print_integrals T
 set tce:qorb 8
 set tce:qela 5
 set tce:qelb 5

# set tce:qducc T
# set tce:nactv 3
# set tce:nonhf T
# set tce:ducc_model 6

 set tce:printtol 0.02

 task tce
================================================================================

 Output coordinates in a.u. (scale by  1.000000000 to convert to a.u.)

  No.       Tag          Charge          X              Y              Z
 ---- ---------------- ---------- -------------- -------------- --------------
    1 O                    8.0000    -0.17255800    -0.20059680     0.00000000
    2 H                    1.0000    -0.17255800     2.45397120     0.00000000
    3 H                    1.0000     1.55302200    -0.84919680     0.00000000

 Vector    1  Occ=1.999992D+00  E=-2.057624D+01  Symmetry=a

 Vector    2  Occ=1.997983D+00  E=-1.285204D+00  Symmetry=a

 Vector    3  Occ=1.982784D+00  E=-6.541373D-01  Symmetry=a

 Vector    4  Occ=1.974220D+00  E=-5.233221D-01  Symmetry=a

 Vector    5  Occ=1.915525D+00  E=-5.108952D-01  Symmetry=a

 Vector    6  Occ=8.645704D-02  E=-5.271948D-02  Symmetry=a

 Vector    7  Occ=2.662472D-02  E=-2.592202D-02  Symmetry=a

 Vector    8  Occ=1.641460D-02  E=-1.297465D-02  Symmetry=a

 Vector    9  Occ=0.000000D+00  E= 4.875647D-01  Symmetry=a

 Vector   10  Occ=0.000000D+00  E= 5.540149D-01  Symmetry=a

 Vector   11  Occ=0.000000D+00  E= 1.038631D+00  Symmetry=a

 Vector   12  Occ=0.000000D+00  E= 1.232761D+00  Symmetry=a

 Vector   13  Occ=0.000000D+00  E= 1.444790D+00  Symmetry=a

 Vector   14  Occ=0.000000D+00  E= 1.539008D+00  Symmetry=a

 Vector   15  Occ=0.000000D+00  E= 1.595778D+00  Symmetry=a

 Vector   16  Occ=0.000000D+00  E= 1.654722D+00  Symmetry=a

 Vector   17  Occ=0.000000D+00  E= 1.699390D+00  Symmetry=a

 Vector   18  Occ=0.000000D+00  E= 2.077474D+00  Symmetry=a

         Total SCF energy =    -75.923637501235

 Vector    2  Occ=2.000000D+00  E=-1.285204D+00

 Vector    3  Occ=2.000000D+00  E=-6.541373D-01

 Vector    4  Occ=2.000000D+00  E=-5.233221D-01

 Vector    5  Occ=2.000000D+00  E=-5.108952D-01

 Vector    6  Occ=0.000000D+00  E=-5.271948D-02

 Vector    7  Occ=0.000000D+00  E=-2.592202D-02

 Vector    8  Occ=0.000000D+00  E=-1.297465D-02

 Vector    9  Occ=0.000000D+00  E= 4.875647D-01

 Vector   10  Occ=0.000000D+00  E= 5.540149D-01

 Vector   11  Occ=0.000000D+00  E= 1.038631D+00

 Vector   12  Occ=0.000000D+00  E= 1.232761D+00

 Vector   13  Occ=0.000000D+00  E= 1.444790D+00

 Vector   14  Occ=0.000000D+00  E= 1.539008D+00

 Vector   15  Occ=0.000000D+00  E= 1.595778D+00

       Multipole analysis of the density wrt the origin
       ------------------------------------------------

     L   x y z        total         open         nuclear
     -   - - -        -----         ----         -------
     0   0 0 0     -0.000000      0.000000     10.000000

     1   1 0 0      0.592259      0.000000     -0.000000
     1   0 1 0      0.414003      0.000000      0.000000
     1   0 0 1     -0.000000      0.000000      0.000000

     2   2 0 0     -4.275169      0.000000      2.679864
     2   1 1 0     -0.784474      0.000000     -1.465357
     2   1 0 1      0.000000      0.000000      0.000000
     2   0 2 0     -2.940141      0.000000      7.065022
     2   0 1 1     -0.000000      0.000000      0.000000

 CCSD total energy / hartree       =       -76.038182519944741
 Total times  cpu:       60.7s     wall:       85.2s
