============================== echo of input deck ==============================
 echo
 start H2O
 title "H2O"

 memory total 24 gb

 geometry units bohr
 symmetry c1
        O  0.00000000  0.00000000  0.00000000
        H  0.00000000  2.6730025  0.00000000
        H  1.72558000 -0.64860000  0.00000000
 end

 basis spherical
   * library cc-pVDZ
 end

 mcscf
   active  8
   actelec 10
   multiplicity 1
   maxiter 40
   vectors input h2o.mos
   vectors output h2o.mos
 end

 task mcscf

 scf
   vectors input h2o.mos
   vectors output h2o-trash.mos
   noscf
 end

 tce
   2eorb
   2emet 13
   ccsd
   maxiter 300
 end

 set tce:print_integrals T
 set tce:qorb 8
 set tce:qela 5
 set tce:qelb 5

# set tce:qducc T
# set tce:nactv 3
# set tce:nonhf T
# set tce:ducc_model 6

 set tce:printtol 0.02

 task tce
================================================================================

 Output coordinates in a.u. (scale by  1.000000000 to convert to a.u.)

  No.       Tag          Charge          X              Y              Z
 ---- ---------------- ---------- -------------- -------------- --------------
    1 O                    8.0000    -0.17255800    -0.20244025     0.00000000
    2 H                    1.0000    -0.17255800     2.47056225     0.00000000
    3 H                    1.0000     1.55302200    -0.85104025     0.00000000

 Vector    1  Occ=1.999992D+00  E=-2.057702D+01  Symmetry=a

 Vector    2  Occ=1.997972D+00  E=-1.285086D+00  Symmetry=a

 Vector    3  Occ=1.982808D+00  E=-6.536330D-01  Symmetry=a

 Vector    4  Occ=1.974193D+00  E=-5.218937D-01  Symmetry=a

 Vector    5  Occ=1.912742D+00  E=-5.112395D-01  Symmetry=a

 Vector    6  Occ=8.925270D-02  E=-5.368487D-02  Symmetry=a

 Vector    7  Occ=2.665422D-02  E=-2.592786D-02  Symmetry=a

 Vector    8  Occ=1.638640D-02  E=-1.294225D-02  Symmetry=a

 Vector    9  Occ=0.000000D+00  E= 4.872810D-01  Symmetry=a

 Vector   10  Occ=0.000000D+00  E= 5.556472D-01  Symmetry=a

 Vector   11  Occ=0.000000D+00  E= 1.039266D+00  Symmetry=a

 Vector   12  Occ=0.000000D+00  E= 1.235685D+00  Symmetry=a

 Vector   13  Occ=0.000000D+00  E= 1.445152D+00  Symmetry=a

 Vector   14  Occ=0.000000D+00  E= 1.539536D+00  Symmetry=a

 Vector   15  Occ=0.000000D+00  E= 1.587166D+00  Symmetry=a

 Vector   16  Occ=0.000000D+00  E= 1.653265D+00  Symmetry=a

 Vector   17  Occ=0.000000D+00  E= 1.695867D+00  Symmetry=a

 Vector   18  Occ=0.000000D+00  E= 2.079433D+00  Symmetry=a

         Total SCF energy =    -75.920931764944

 Vector    2  Occ=2.000000D+00  E=-1.285086D+00

 Vector    3  Occ=2.000000D+00  E=-6.536330D-01

 Vector    4  Occ=2.000000D+00  E=-5.218937D-01

 Vector    5  Occ=2.000000D+00  E=-5.112395D-01

 Vector    6  Occ=0.000000D+00  E=-5.368487D-02

 Vector    7  Occ=0.000000D+00  E=-2.592786D-02

 Vector    8  Occ=0.000000D+00  E=-1.294225D-02

 Vector    9  Occ=0.000000D+00  E= 4.872810D-01

 Vector   10  Occ=0.000000D+00  E= 5.556472D-01

 Vector   11  Occ=0.000000D+00  E= 1.039266D+00

 Vector   12  Occ=0.000000D+00  E= 1.235685D+00

 Vector   13  Occ=0.000000D+00  E= 1.445152D+00

 Vector   14  Occ=0.000000D+00  E= 1.539536D+00

 Vector   15  Occ=0.000000D+00  E= 1.587166D+00

       Multipole analysis of the density wrt the origin
       ------------------------------------------------

     L   x y z        total         open         nuclear
     -   - - -        -----         ----         -------
     0   0 0 0     -0.000000      0.000000     10.000000

     1   1 0 0      0.592292      0.000000     -0.000000
     1   0 1 0      0.410047      0.000000      0.000000
     1   0 0 1     -0.000000      0.000000      0.000000

     2   2 0 0     -4.279910      0.000000      2.679864
     2   1 1 0     -0.783713      0.000000     -1.468538
     2   1 0 1      0.000000      0.000000      0.000000
     2   0 2 0     -2.936182      0.000000      7.155804
     2   0 1 1     -0.000000      0.000000      0.000000

 CCSD total energy / hartree       =       -76.036191662592515
 Total times  cpu:       60.9s     wall:       85.2s
