============================== echo of input deck ==============================
 echo
 start H2O
 title "H2O"

 memory total 24 gb

 geometry units bohr
 symmetry c1
        O  0.00000000  0.00000000  0.00000000
        H  0.00000000  2.94952  0.00000000
        H  1.72558000 -0.64860000  0.00000000
 end

 basis spherical
   * library cc-pVDZ
 end

 mcscf
   active  8
   actelec 10
   multiplicity 1
   maxiter 40
   vectors input h2o.mos
   vectors output h2o.mos
 end

 task mcscf

 scf
   vectors input h2o.mos
   vectors output h2o-trash.mos
   noscf
 end

 tce
   2eorb
   2emet 13
   ccsd
   maxiter 300
 end

 set tce:print_integrals T
 set tce:qorb 8
 set tce:qela 5
 set tce:qelb 5

# set tce:qducc T
# set tce:nactv 3
# set tce:nonhf T
# set tce:ducc_model 6

 set tce:printtol 0.02

 task tce
================================================================================

 Output coordinates in a.u. (scale by  1.000000000 to convert to a.u.)

  No.       Tag          Charge          X              Y              Z
 ---- ---------------- ---------- -------------- -------------- --------------
    1 O                    8.0000    -0.17255800    -0.23009200     0.00000000
    2 H                    1.0000    -0.17255800     2.71942800     0.00000000
    3 H                    1.0000     1.55302200    -0.87869200     0.00000000

 Vector    1  Occ=1.999992D+00  E=-2.058850D+01  Symmetry=a

 Vector    2  Occ=1.997917D+00  E=-1.285851D+00  Symmetry=a

 Vector    3  Occ=1.983385D+00  E=-6.503161D-01  Symmetry=a

 Vector    4  Occ=1.973945D+00  E=-5.173310D-01  Symmetry=a

 Vector    5  Occ=1.859075D+00  E=-4.985022D-01  Symmetry=a

 Vector    6  Occ=1.429274D-01  E=-7.047435D-02  Symmetry=a

 Vector    7  Occ=2.694088D-02  E=-2.598885D-02  Symmetry=a

 Vector    8  Occ=1.581660D-02  E=-1.250840D-02  Symmetry=a

 Vector    9  Occ=0.000000D+00  E= 4.814859D-01  Symmetry=a

 Vector   10  Occ=0.000000D+00  E= 5.810510D-01  Symmetry=a

 Vector   11  Occ=0.000000D+00  E= 1.050321D+00  Symmetry=a

 Vector   12  Occ=0.000000D+00  E= 1.257172D+00  Symmetry=a

 Vector   13  Occ=0.000000D+00  E= 1.452103D+00  Symmetry=a

 Vector   14  Occ=0.000000D+00  E= 1.481445D+00  Symmetry=a

 Vector   15  Occ=0.000000D+00  E= 1.546592D+00  Symmetry=a

 Vector   16  Occ=0.000000D+00  E= 1.629995D+00  Symmetry=a

 Vector   17  Occ=0.000000D+00  E= 1.649817D+00  Symmetry=a

 Vector   18  Occ=0.000000D+00  E= 2.101679D+00  Symmetry=a

         Total SCF energy =    -75.881454832030

 Vector    2  Occ=2.000000D+00  E=-1.285851D+00

 Vector    3  Occ=2.000000D+00  E=-6.503161D-01

 Vector    4  Occ=2.000000D+00  E=-5.173310D-01

 Vector    5  Occ=2.000000D+00  E=-4.985022D-01

 Vector    6  Occ=0.000000D+00  E=-7.047435D-02

 Vector    7  Occ=0.000000D+00  E=-2.598885D-02

 Vector    8  Occ=0.000000D+00  E=-1.250840D-02

 Vector    9  Occ=0.000000D+00  E= 4.814859D-01

 Vector   10  Occ=0.000000D+00  E= 5.810510D-01

 Vector   11  Occ=0.000000D+00  E= 1.050321D+00

 Vector   12  Occ=0.000000D+00  E= 1.257172D+00

 Vector   13  Occ=0.000000D+00  E= 1.452103D+00

 Vector   14  Occ=0.000000D+00  E= 1.481445D+00

 Vector   15  Occ=0.000000D+00  E= 1.546592D+00

       Multipole analysis of the density wrt the origin
       ------------------------------------------------

     L   x y z        total         open         nuclear
     -   - - -        -----         ----         -------
     0   0 0 0     -0.000000      0.000000     10.000000

     1   1 0 0      0.594168      0.000000     -0.000000
     1   0 1 0      0.333500      0.000000      0.000000
     1   0 0 1     -0.000000      0.000000      0.000000

     2   2 0 0     -4.340414      0.000000      2.679864
     2   1 1 0     -0.764704      0.000000     -1.516253
     2   1 0 1      0.000000      0.000000      0.000000
     2   0 2 0     -2.930797      0.000000      8.590927
     2   0 1 1     -0.000000      0.000000      0.000000

 CCSD total energy / hartree       =       -76.008881387128838
 Total times  cpu:       62.2s     wall:       88.2s
