============================== echo of input deck ==============================
 echo
 start H2O
 title "H2O"

 memory total 24 gb

 geometry units bohr
 symmetry c1
        O  0.00000000  0.00000000  0.00000000
        H  0.00000000  3.0416925  0.00000000
        H  1.72558000 -0.64860000  0.00000000
 end

 basis spherical
   * library cc-pVDZ
 end

 mcscf
   active  8
   actelec 10
   multiplicity 1
   maxiter 40
   vectors input h2o.mos
   vectors output h2o.mos
 end

 task mcscf

 scf
   vectors input h2o.mos
   vectors output h2o-trash.mos
   noscf
 end

 tce
   2eorb
   2emet 13
   ccsd
   maxiter 300
 end

 set tce:print_integrals T
 set tce:qorb 8
 set tce:qela 5
 set tce:qelb 5

# set tce:qducc T
# set tce:nactv 3
# set tce:nonhf T
# set tce:ducc_model 6

 set tce:printtol 0.02

 task tce
================================================================================

 Output coordinates in a.u. (scale by  1.000000000 to convert to a.u.)

  No.       Tag          Charge          X              Y              Z
 ---- ---------------- ---------- -------------- -------------- --------------
    1 O                    8.0000    -0.17255800    -0.23930925     0.00000000
    2 H                    1.0000    -0.17255800     2.80238325     0.00000000
    3 H                    1.0000     1.55302200    -0.88790925     0.00000000

 Vector    1  Occ=1.999992D+00  E=-2.059211D+01  Symmetry=a

 Vector    2  Occ=1.997940D+00  E=-1.286993D+00  Symmetry=a

 Vector    3  Occ=1.983638D+00  E=-6.507140D-01  Symmetry=a

 Vector    4  Occ=1.973925D+00  E=-5.197193D-01  Symmetry=a

 Vector    5  Occ=1.836072D+00  E=-4.898494D-01  Symmetry=a

 Vector    6  Occ=1.658640D-01  E=-7.732168D-02  Symmetry=a

 Vector    7  Occ=2.697922D-02  E=-2.600252D-02  Symmetry=a

 Vector    8  Occ=1.558958D-02  E=-1.237876D-02  Symmetry=a

 Vector    9  Occ=0.000000D+00  E= 4.784412D-01  Symmetry=a

 Vector   10  Occ=0.000000D+00  E= 5.902902D-01  Symmetry=a

 Vector   11  Occ=0.000000D+00  E= 1.054936D+00  Symmetry=a

 Vector   12  Occ=0.000000D+00  E= 1.254078D+00  Symmetry=a

 Vector   13  Occ=0.000000D+00  E= 1.454797D+00  Symmetry=a

 Vector   14  Occ=0.000000D+00  E= 1.461309D+00  Symmetry=a

 Vector   15  Occ=0.000000D+00  E= 1.546725D+00  Symmetry=a

 Vector   16  Occ=0.000000D+00  E= 1.622091D+00  Symmetry=a

 Vector   17  Occ=0.000000D+00  E= 1.637669D+00  Symmetry=a

 Vector   18  Occ=0.000000D+00  E= 2.103072D+00  Symmetry=a

         Total SCF energy =    -75.868886588955

 Vector    2  Occ=2.000000D+00  E=-1.286993D+00

 Vector    3  Occ=2.000000D+00  E=-6.507140D-01

 Vector    4  Occ=2.000000D+00  E=-5.197193D-01

 Vector    5  Occ=2.000000D+00  E=-4.898494D-01

 Vector    6  Occ=0.000000D+00  E=-7.732168D-02

 Vector    7  Occ=0.000000D+00  E=-2.600252D-02

 Vector    8  Occ=0.000000D+00  E=-1.237876D-02

 Vector    9  Occ=0.000000D+00  E= 4.784412D-01

 Vector   10  Occ=0.000000D+00  E= 5.902902D-01

 Vector   11  Occ=0.000000D+00  E= 1.054936D+00

 Vector   12  Occ=0.000000D+00  E= 1.254078D+00

 Vector   13  Occ=0.000000D+00  E= 1.454797D+00

 Vector   14  Occ=0.000000D+00  E= 1.461309D+00

 Vector   15  Occ=0.000000D+00  E= 1.546725D+00

       Multipole analysis of the density wrt the origin
       ------------------------------------------------

     L   x y z        total         open         nuclear
     -   - - -        -----         ----         -------
     0   0 0 0     -0.000000      0.000000     10.000000

     1   1 0 0      0.595235      0.000000     -0.000000
     1   0 1 0      0.302861      0.000000     -0.000000
     1   0 0 1     -0.000000      0.000000      0.000000

     2   2 0 0     -4.356135      0.000000      2.679864
     2   1 1 0     -0.755659      0.000000     -1.532158
     2   1 0 1     -0.000000      0.000000      0.000000
     2   0 2 0     -2.949200      0.000000      9.099886
     2   0 1 1     -0.000000      0.000000      0.000000

 CCSD total energy / hartree       =       -76.000998993351942
 Total times  cpu:       63.1s     wall:       88.2s
