============================== echo of input deck ==============================
 echo
 start H2O
 title "H2O"

 memory total 24 gb

 geometry units bohr
 symmetry c1
        O  0.00000000  0.00000000  0.00000000
        H  0.00000000  3.6869  0.00000000
        H  1.72558000 -0.64860000  0.00000000
 end

 basis spherical
   * library cc-pVDZ
 end

 mcscf
   active  8
   actelec 10
   multiplicity 1
   maxiter 40
   vectors input h2o.mos
   vectors output h2o.mos
 end

 task mcscf

 scf
   vectors input h2o.mos
   vectors output h2o-trash.mos
   noscf
 end

 tce
   2eorb
   2emet 13
   ccsd
   maxiter 300
 end

 set tce:print_integrals T
 set tce:qorb 8
 set tce:qela 5
 set tce:qelb 5

# set tce:qducc T
# set tce:nactv 3
# set tce:nonhf T
# set tce:ducc_model 6

 set tce:printtol 0.02

 task tce
================================================================================

 Output coordinates in a.u. (scale by  1.000000000 to convert to a.u.)

  No.       Tag          Charge          X              Y              Z
 ---- ---------------- ---------- -------------- -------------- --------------
    1 O                    8.0000    -0.17255800    -0.30383000     0.00000000
    2 H                    1.0000    -0.17255800     3.38307000     0.00000000
    3 H                    1.0000     1.55302200    -0.95243000     0.00000000

 Vector    1  Occ=1.999993D+00  E=-2.060844D+01  Symmetry=a

 Vector    2  Occ=1.998341D+00  E=-1.295961D+00  Symmetry=a

 Vector    3  Occ=1.985405D+00  E=-6.581549D-01  Symmetry=a

 Vector    4  Occ=1.974205D+00  E=-5.331989D-01  Symmetry=a

 Vector    5  Occ=1.622286D+00  E=-4.273543D-01  Symmetry=a

 Vector    6  Occ=3.787981D-01  E=-1.339996D-01  Symmetry=a

 Vector    7  Occ=2.684784D-02  E=-2.597929D-02  Symmetry=a

 Vector    8  Occ=1.412276D-02  E=-1.177279D-02  Symmetry=a

 Vector    9  Occ=0.000000D+00  E= 4.561551D-01  Symmetry=a

 Vector   10  Occ=0.000000D+00  E= 6.479614D-01  Symmetry=a

 Vector   11  Occ=0.000000D+00  E= 1.084043D+00  Symmetry=a

 Vector   12  Occ=0.000000D+00  E= 1.165498D+00  Symmetry=a

 Vector   13  Occ=0.000000D+00  E= 1.449760D+00  Symmetry=a

 Vector   14  Occ=0.000000D+00  E= 1.477867D+00  Symmetry=a

 Vector   15  Occ=0.000000D+00  E= 1.531759D+00  Symmetry=a

 Vector   16  Occ=0.000000D+00  E= 1.573942D+00  Symmetry=a

 Vector   17  Occ=0.000000D+00  E= 1.597648D+00  Symmetry=a

 Vector   18  Occ=0.000000D+00  E= 1.983663D+00  Symmetry=a

         Total SCF energy =    -75.790799467791

 Vector    2  Occ=2.000000D+00  E=-1.295961D+00

 Vector    3  Occ=2.000000D+00  E=-6.581549D-01

 Vector    4  Occ=2.000000D+00  E=-5.331989D-01

 Vector    5  Occ=2.000000D+00  E=-4.273543D-01

 Vector    6  Occ=0.000000D+00  E=-1.339996D-01

 Vector    7  Occ=0.000000D+00  E=-2.597929D-02

 Vector    8  Occ=0.000000D+00  E=-1.177279D-02

 Vector    9  Occ=0.000000D+00  E= 4.561551D-01

 Vector   10  Occ=0.000000D+00  E= 6.479614D-01

 Vector   11  Occ=0.000000D+00  E= 1.084043D+00

 Vector   12  Occ=0.000000D+00  E= 1.165498D+00

 Vector   13  Occ=0.000000D+00  E= 1.449760D+00

 Vector   14  Occ=0.000000D+00  E= 1.477867D+00

 Vector   15  Occ=0.000000D+00  E= 1.531759D+00

       Multipole analysis of the density wrt the origin
       ------------------------------------------------

     L   x y z        total         open         nuclear
     -   - - -        -----         ----         -------
     0   0 0 0     -0.000000      0.000000     10.000000

     1   1 0 0      0.604691      0.000000     -0.000000
     1   0 1 0      0.086598      0.000000     -0.000000
     1   0 0 1     -0.000000      0.000000      0.000000

     2   2 0 0     -4.411135      0.000000      2.679864
     2   1 1 0     -0.678289      0.000000     -1.643494
     2   1 0 1     -0.000000      0.000000      0.000000
     2   0 2 0     -3.219662      0.000000     13.090787
     2   0 1 1     -0.000000      0.000000      0.000000

 CCSD total energy / hartree       =       -75.963009022757277
 Total times  cpu:       71.8s     wall:      101.4s
