============================== echo of input deck ==============================
 echo
 start H2O
 title "H2O"

 memory total 24 gb

 geometry units bohr
 symmetry c1
        O  0.00000000  0.00000000  0.00000000
        H  0.00000000  3.9634175  0.00000000
        H  1.72558000 -0.64860000  0.00000000
 end

 basis spherical
   * library cc-pVDZ
 end

 mcscf
   active  8
   actelec 10
   multiplicity 1
   maxiter 40
   vectors input h2o.mos
   vectors output h2o.mos
 end

 task mcscf

 scf
   vectors input h2o.mos
   vectors output h2o-trash.mos
   noscf
 end

 tce
   2eorb
   2emet 13
   ccsd
   maxiter 300
 end

 set tce:print_integrals T
 set tce:qorb 8
 set tce:qela 5
 set tce:qelb 5

# set tce:qducc T
# set tce:nactv 3
# set tce:nonhf T
# set tce:ducc_model 6

 set tce:printtol 0.02

 task tce
================================================================================

 Output coordinates in a.u. (scale by  1.000000000 to convert to a.u.)

  No.       Tag          Charge          X              Y              Z
 ---- ---------------- ---------- -------------- -------------- --------------
    1 O                    8.0000    -0.17255800    -0.33148175     0.00000000
    2 H                    1.0000    -0.17255800     3.63193575     0.00000000
    3 H                    1.0000     1.55302200    -0.98008175     0.00000000

 Vector    1  Occ=1.999994D+00  E=-2.061087D+01  Symmetry=a

 Vector    2  Occ=1.998509D+00  E=-1.298149D+00  Symmetry=a

 Vector    3  Occ=1.985942D+00  E=-6.603304D-01  Symmetry=a

 Vector    4  Occ=1.974370D+00  E=-5.361162D-01  Symmetry=a

 Vector    5  Occ=1.521494D+00  E=-4.034326D-01  Symmetry=a

 Vector    6  Occ=4.792625D-01  E=-1.581048D-01  Symmetry=a

 Vector    7  Occ=2.673198D-02  E=-2.593660D-02  Symmetry=a

 Vector    8  Occ=1.369689D-02  E=-1.162575D-02  Symmetry=a

 Vector    9  Occ=0.000000D+00  E= 4.482766D-01  Symmetry=a

 Vector   10  Occ=0.000000D+00  E= 6.641398D-01  Symmetry=a

 Vector   11  Occ=0.000000D+00  E= 1.091047D+00  Symmetry=a

 Vector   12  Occ=0.000000D+00  E= 1.148241D+00  Symmetry=a

 Vector   13  Occ=0.000000D+00  E= 1.462173D+00  Symmetry=a

 Vector   14  Occ=0.000000D+00  E= 1.487750D+00  Symmetry=a

 Vector   15  Occ=0.000000D+00  E= 1.523736D+00  Symmetry=a

 Vector   16  Occ=0.000000D+00  E= 1.559326D+00  Symmetry=a

 Vector   17  Occ=0.000000D+00  E= 1.597832D+00  Symmetry=a

 Vector   18  Occ=0.000000D+00  E= 1.890487D+00  Symmetry=a

         Total SCF energy =    -75.762737996307

 Vector    2  Occ=2.000000D+00  E=-1.298149D+00

 Vector    3  Occ=2.000000D+00  E=-6.603304D-01

 Vector    4  Occ=2.000000D+00  E=-5.361162D-01

 Vector    5  Occ=2.000000D+00  E=-4.034326D-01

 Vector    6  Occ=0.000000D+00  E=-1.581048D-01

 Vector    7  Occ=0.000000D+00  E=-2.593660D-02

 Vector    8  Occ=0.000000D+00  E=-1.162575D-02

 Vector    9  Occ=0.000000D+00  E= 4.482766D-01

 Vector   10  Occ=0.000000D+00  E= 6.641398D-01

 Vector   11  Occ=0.000000D+00  E= 1.091047D+00

 Vector   12  Occ=0.000000D+00  E= 1.148241D+00

 Vector   13  Occ=0.000000D+00  E= 1.462173D+00

 Vector   14  Occ=0.000000D+00  E= 1.487750D+00

 Vector   15  Occ=0.000000D+00  E= 1.523736D+00

       Multipole analysis of the density wrt the origin
       ------------------------------------------------

     L   x y z        total         open         nuclear
     -   - - -        -----         ----         -------
     0   0 0 0     -0.000000      0.000000     10.000000

     1   1 0 0      0.608625      0.000000     -0.000000
     1   0 1 0      0.013557      0.000000      0.000000
     1   0 0 1     -0.000000      0.000000      0.000000

     2   2 0 0     -4.412753      0.000000      2.679864
     2   1 1 0     -0.648930      0.000000     -1.691209
     2   1 0 1      0.000000      0.000000      0.000000
     2   0 2 0     -3.349637      0.000000     15.030559
     2   0 1 1     -0.000000      0.000000      0.000000

 CCSD total energy / hartree       =       -75.954221831390925
 Total times  cpu:       80.7s     wall:      113.1s
