============================== echo of input deck ==============================
 echo
 start H2O
 title "H2O"

 memory total 24 gb

 geometry units bohr
 symmetry c1
        O  0.00000000  0.00000000  0.00000000
        H  0.00000000  4.7007975  0.00000000
        H  1.72558000 -0.64860000  0.00000000
 end

 basis spherical
   * library cc-pVDZ
 end

 mcscf
   active  8
   actelec 10
   multiplicity 1
   maxiter 40
   vectors input h2o.mos
   vectors output h2o.mos
 end

 task mcscf

 scf
   vectors input h2o.mos
   vectors output h2o-trash.mos
   noscf
 end

 tce
   2eorb
   2emet 13
   ccsd
   maxiter 300
 end

 set tce:print_integrals T
 set tce:qorb 8
 set tce:qela 5
 set tce:qelb 5

# set tce:qducc T
# set tce:nactv 3
# set tce:nonhf T
# set tce:ducc_model 6

 set tce:printtol 0.02

 task tce
================================================================================

 Output coordinates in a.u. (scale by  1.000000000 to convert to a.u.)

  No.       Tag          Charge          X              Y              Z
 ---- ---------------- ---------- -------------- -------------- --------------
    1 O                    8.0000    -0.17255800    -0.40521975     0.00000000
    2 H                    1.0000    -0.17255800     4.29557775     0.00000000
    3 H                    1.0000     1.55302200    -1.05381975     0.00000000

 Vector    1  Occ=1.999994D+00  E=-2.061140D+01  Symmetry=a

 Vector    2  Occ=1.998774D+00  E=-1.299848D+00  Symmetry=a

 Vector    3  Occ=1.986701D+00  E=-6.620723D-01  Symmetry=a

 Vector    4  Occ=1.974649D+00  E=-5.385046D-01  Symmetry=a

 Vector    5  Occ=1.297823D+00  E=-3.568046D-01  Symmetry=a

 Vector    6  Occ=7.024340D-01  E=-2.070306D-01  Symmetry=a

 Vector    7  Occ=2.652208D-02  E=-2.582303D-02  Symmetry=a

 Vector    8  Occ=1.310352D-02  E=-1.140874D-02  Symmetry=a

 Vector    9  Occ=0.000000D+00  E= 4.338104D-01  Symmetry=a

 Vector   10  Occ=0.000000D+00  E= 6.723875D-01  Symmetry=a

 Vector   11  Occ=0.000000D+00  E= 1.102388D+00  Symmetry=a

 Vector   12  Occ=0.000000D+00  E= 1.168891D+00  Symmetry=a

 Vector   13  Occ=0.000000D+00  E= 1.488572D+00  Symmetry=a

 Vector   14  Occ=0.000000D+00  E= 1.506304D+00  Symmetry=a

 Vector   15  Occ=0.000000D+00  E= 1.514298D+00  Symmetry=a

 Vector   16  Occ=0.000000D+00  E= 1.537013D+00  Symmetry=a

 Vector   17  Occ=0.000000D+00  E= 1.602683D+00  Symmetry=a

 Vector   18  Occ=0.000000D+00  E= 1.693359D+00  Symmetry=a

         Total SCF energy =    -75.702792542592

 Vector    2  Occ=2.000000D+00  E=-1.299848D+00

 Vector    3  Occ=2.000000D+00  E=-6.620723D-01

 Vector    4  Occ=2.000000D+00  E=-5.385046D-01

 Vector    5  Occ=2.000000D+00  E=-3.568046D-01

 Vector    6  Occ=0.000000D+00  E=-2.070306D-01

 Vector    7  Occ=0.000000D+00  E=-2.582303D-02

 Vector    8  Occ=0.000000D+00  E=-1.140874D-02

 Vector    9  Occ=0.000000D+00  E= 4.338104D-01

 Vector   10  Occ=0.000000D+00  E= 6.723875D-01

 Vector   11  Occ=0.000000D+00  E= 1.102388D+00

 Vector   12  Occ=0.000000D+00  E= 1.168891D+00

 Vector   13  Occ=0.000000D+00  E= 1.488572D+00

 Vector   14  Occ=0.000000D+00  E= 1.506304D+00

 Vector   15  Occ=0.000000D+00  E= 1.514298D+00

       Multipole analysis of the density wrt the origin
       ------------------------------------------------

     L   x y z        total         open         nuclear
     -   - - -        -----         ----         -------
     0   0 0 0     -0.000000      0.000000     10.000000

     1   1 0 0      0.617311      0.000000     -0.000000
     1   0 1 0     -0.113859      0.000000     -0.000000
     1   0 0 1     -0.000000      0.000000      0.000000

     2   2 0 0     -4.391969      0.000000      2.679864
     2   1 1 0     -0.603925      0.000000     -1.818450
     2   1 0 1      0.000000      0.000000      0.000000
     2   0 2 0     -3.650585      0.000000     20.876149
     2   0 1 1     -0.000000      0.000000      0.000000

 CCSD total energy / hartree       =       -75.943099380204259
 Total times  cpu:       98.4s     wall:      136.0s
