============================== echo of input deck ==============================
 echo
 start H2O
 title "H2O"

 memory total 24 gb

 geometry units bohr
 symmetry c1
        O  0.00000000  0.00000000  0.00000000
        H  0.00000000  4.8851425  0.00000000
        H  1.72558000 -0.64860000  0.00000000
 end

 basis spherical
   * library cc-pVDZ
 end

 mcscf
   active  8
   actelec 10
   multiplicity 1
   maxiter 40
   vectors input h2o.mos
   vectors output h2o.mos
 end

 task mcscf

 scf
   vectors input h2o.mos
   vectors output h2o-trash.mos
   noscf
 end

 tce
   2eorb
   2emet 13
   ccsd
   maxiter 300
 end

 set tce:print_integrals T
 set tce:qorb 8
 set tce:qela 5
 set tce:qelb 5

# set tce:qducc T
# set tce:nactv 3
# set tce:nonhf T
# set tce:ducc_model 6

 set tce:printtol 0.02

 task tce
================================================================================

 Output coordinates in a.u. (scale by  1.000000000 to convert to a.u.)

  No.       Tag          Charge          X              Y              Z
 ---- ---------------- ---------- -------------- -------------- --------------
    1 O                    8.0000    -0.17255800    -0.42365425     0.00000000
    2 H                    1.0000    -0.17255800     4.46148825     0.00000000
    3 H                    1.0000     1.55302200    -1.07225425     0.00000000

 Vector    1  Occ=1.999994D+00  E=-2.061106D+01  Symmetry=a

 Vector    2  Occ=1.998809D+00  E=-1.299820D+00  Symmetry=a

 Vector    3  Occ=1.986790D+00  E=-6.620504D-01  Symmetry=a

 Vector    4  Occ=1.974685D+00  E=-5.385224D-01  Symmetry=a

 Vector    5  Occ=1.255791D+00  E=-3.490133D-01  Symmetry=a

 Vector    6  Occ=7.444020D-01  E=-2.153543D-01  Symmetry=a

 Vector    7  Occ=2.649373D-02  E=-2.580261D-02  Symmetry=a

 Vector    8  Occ=1.303464D-02  E=-1.138028D-02  Symmetry=a

 Vector    9  Occ=0.000000D+00  E= 4.314867D-01  Symmetry=a

 Vector   10  Occ=0.000000D+00  E= 6.694933D-01  Symmetry=a

 Vector   11  Occ=0.000000D+00  E= 1.104116D+00  Symmetry=a

 Vector   12  Occ=0.000000D+00  E= 1.177647D+00  Symmetry=a

 Vector   13  Occ=0.000000D+00  E= 1.493307D+00  Symmetry=a

 Vector   14  Occ=0.000000D+00  E= 1.508797D+00  Symmetry=a

 Vector   15  Occ=0.000000D+00  E= 1.513672D+00  Symmetry=a

 Vector   16  Occ=0.000000D+00  E= 1.534386D+00  Symmetry=a

 Vector   17  Occ=0.000000D+00  E= 1.595765D+00  Symmetry=a

 Vector   18  Occ=0.000000D+00  E= 1.670026D+00  Symmetry=a

         Total SCF energy =    -75.690853215002

 Vector    2  Occ=2.000000D+00  E=-1.299820D+00

 Vector    3  Occ=2.000000D+00  E=-6.620504D-01

 Vector    4  Occ=2.000000D+00  E=-5.385224D-01

 Vector    5  Occ=2.000000D+00  E=-3.490133D-01

 Vector    6  Occ=0.000000D+00  E=-2.153543D-01

 Vector    7  Occ=0.000000D+00  E=-2.580261D-02

 Vector    8  Occ=0.000000D+00  E=-1.138028D-02

 Vector    9  Occ=0.000000D+00  E= 4.314867D-01

 Vector   10  Occ=0.000000D+00  E= 6.694933D-01

 Vector   11  Occ=0.000000D+00  E= 1.104116D+00

 Vector   12  Occ=0.000000D+00  E= 1.177647D+00

 Vector   13  Occ=0.000000D+00  E= 1.493307D+00

 Vector   14  Occ=0.000000D+00  E= 1.508797D+00

 Vector   15  Occ=0.000000D+00  E= 1.513672D+00

       Multipole analysis of the density wrt the origin
       ------------------------------------------------

     L   x y z        total         open         nuclear
     -   - - -        -----         ----         -------
     0   0 0 0     -0.000000      0.000000     10.000000

     1   1 0 0      0.619037      0.000000     -0.000000
     1   0 1 0     -0.134495      0.000000      0.000000
     1   0 0 1     -0.000000      0.000000      0.000000

     2   2 0 0     -4.385184      0.000000      2.679864
     2   1 1 0     -0.599803      0.000000     -1.850260
     2   1 0 1      0.000000      0.000000      0.000000
     2   0 2 0     -3.719032      0.000000     22.490470
     2   0 1 1     -0.000000      0.000000      0.000000

 CCSD total energy / hartree       =       -75.941894537366650
 Total times  cpu:       98.1s     wall:      136.0s
