============================== echo of input deck ==============================
 echo
 start H2O
 title "H2O"

 memory total 24 gb

 geometry units bohr
 symmetry c1
        O  0.00000000  0.00000000  0.00000000
        H  0.00000000  5.4381775  0.00000000
        H  1.72558000 -0.64860000  0.00000000
 end

 basis spherical
   * library cc-pVDZ
 end

 mcscf
   active  8
   actelec 10
   multiplicity 1
   maxiter 40
   vectors input h2o.mos
   vectors output h2o.mos
 end

 task mcscf

 scf
   vectors input h2o.mos
   vectors output h2o-trash.mos
   noscf
 end

 tce
   2eorb
   2emet 13
   ccsd
   maxiter 300
 end

 set tce:print_integrals T
 set tce:qorb 8
 set tce:qela 5
 set tce:qelb 5

# set tce:qducc T
# set tce:nactv 3
# set tce:nonhf T
# set tce:ducc_model 6

 set tce:printtol 0.02

 task tce
================================================================================

 Output coordinates in a.u. (scale by  1.000000000 to convert to a.u.)

  No.       Tag          Charge          X              Y              Z
 ---- ---------------- ---------- -------------- -------------- --------------
    1 O                    8.0000    -0.17255800    -0.47895775     0.00000000
    2 H                    1.0000    -0.17255800     4.95921975     0.00000000
    3 H                    1.0000     1.55302200    -1.12755775     0.00000000

 Vector    1  Occ=1.999995D+00  E=-2.060999D+01  Symmetry=a

 Vector    2  Occ=1.998872D+00  E=-1.299465D+00  Symmetry=a

 Vector    3  Occ=1.986939D+00  E=-6.617095D-01  Symmetry=a

 Vector    4  Occ=1.974748D+00  E=-5.382064D-01  Symmetry=a

 Vector    5  Occ=1.159549D+00  E=-3.330584D-01  Symmetry=a

 Vector    6  Occ=8.405319D-01  E=-2.325018D-01  Symmetry=a

 Vector    7  Occ=2.644519D-02  E=-2.576134D-02  Symmetry=a

 Vector    8  Occ=1.292069D-02  E=-1.132861D-02  Symmetry=a

 Vector    9  Occ=0.000000D+00  E= 4.268704D-01  Symmetry=a

 Vector   10  Occ=0.000000D+00  E= 6.589404D-01  Symmetry=a

 Vector   11  Occ=0.000000D+00  E= 1.106401D+00  Symmetry=a

 Vector   12  Occ=0.000000D+00  E= 1.192301D+00  Symmetry=a

 Vector   13  Occ=0.000000D+00  E= 1.504325D+00  Symmetry=a

 Vector   14  Occ=0.000000D+00  E= 1.512263D+00  Symmetry=a

 Vector   15  Occ=0.000000D+00  E= 1.512995D+00  Symmetry=a

 Vector   16  Occ=0.000000D+00  E= 1.530809D+00  Symmetry=a

 Vector   17  Occ=0.000000D+00  E= 1.559216D+00  Symmetry=a

 Vector   18  Occ=0.000000D+00  E= 1.650756D+00  Symmetry=a

         Total SCF energy =    -75.661187337145

 Vector    2  Occ=2.000000D+00  E=-1.299465D+00

 Vector    3  Occ=2.000000D+00  E=-6.617095D-01

 Vector    4  Occ=2.000000D+00  E=-5.382064D-01

 Vector    5  Occ=2.000000D+00  E=-3.330584D-01

 Vector    6  Occ=0.000000D+00  E=-2.325018D-01

 Vector    7  Occ=0.000000D+00  E=-2.576134D-02

 Vector    8  Occ=0.000000D+00  E=-1.132861D-02

 Vector    9  Occ=0.000000D+00  E= 4.268704D-01

 Vector   10  Occ=0.000000D+00  E= 6.589404D-01

 Vector   11  Occ=0.000000D+00  E= 1.106401D+00

 Vector   12  Occ=0.000000D+00  E= 1.192301D+00

 Vector   13  Occ=0.000000D+00  E= 1.504325D+00

 Vector   14  Occ=0.000000D+00  E= 1.512263D+00

 Vector   15  Occ=0.000000D+00  E= 1.512995D+00

       Multipole analysis of the density wrt the origin
       ------------------------------------------------

     L   x y z        total         open         nuclear
     -   - - -        -----         ----         -------
     0   0 0 0     -0.000000      0.000000     10.000000

     1   1 0 0      0.623174      0.000000     -0.000000
     1   0 1 0     -0.179470      0.000000     -0.000000
     1   0 0 1     -0.000000      0.000000      0.000000

     2   2 0 0     -4.365901      0.000000      2.679864
     2   1 1 0     -0.600060      0.000000     -1.945691
     2   1 0 1      0.000000      0.000000      0.000000
     2   0 2 0     -3.911433      0.000000     27.700451
     2   0 1 1      0.000000      0.000000      0.000000

 CCSD total energy / hartree       =       -75.939940989372644
 Total times  cpu:      126.2s     wall:      175.4s
