============================== echo of input deck ==============================
 echo
 start HF
 title "HF"

 memory total 24 gb

 geometry units bohr
 symmetry c1
        F  0.00000000  0.00000000  0.00000000
        H  0.00000000  1.42065  0.00000000
 end

 basis spherical
   * library cc-pVTZ
 end

 mcscf
   active  8
   actelec 10
   multiplicity 1
   maxiter 40
   vectors input HF.mos
   vectors output HF.mos
 end

 task mcscf

 scf
   vectors input HF.mos
   vectors output HF-trash.mos
   noscf
 end

 tce
   2eorb
   2emet 13
   ccsd
   maxiter 500
 end

# set tce:print_integrals T
# set tce:qorb 8
# set tce:qela 5
# set tce:qelb 5

 set tce:qducc T
 set tce:nactv 3
 set tce:nonhf T
 set tce:ducc_model 6

 set tce:printtol 0.02

 task tce
================================================================================

 Output coordinates in a.u. (scale by  1.000000000 to convert to a.u.)

  No.       Tag          Charge          X              Y              Z
 ---- ---------------- ---------- -------------- -------------- --------------
    1 F                    9.0000     0.00000000    -0.14206500     0.00000000
    2 H                    1.0000     0.00000000     1.27858500     0.00000000

 Vector    1  Occ=1.999966D+00  E=-2.627960D+01  Symmetry=a

 Vector    2  Occ=1.999406D+00  E=-1.679553D+00  Symmetry=a

 Vector    3  Occ=1.999406D+00  E=-8.488451D-01  Symmetry=a

 Vector    4  Occ=1.995599D+00  E=-6.655668D-01  Symmetry=a

 Vector    5  Occ=1.986973D+00  E=-6.655668D-01  Symmetry=a

 Vector    6  Occ=1.199580D-02  E=-1.835080D-02  Symmetry=a

 Vector    7  Occ=4.707241D-03  E=-8.757536D-03  Symmetry=a

 Vector    8  Occ=1.946178D-03  E=-4.170829D-03  Symmetry=a

 Vector    9  Occ=0.000000D+00  E= 3.870556D-01  Symmetry=a

 Vector   10  Occ=0.000000D+00  E= 9.191475D-01  Symmetry=a

 Vector   11  Occ=0.000000D+00  E= 9.191475D-01  Symmetry=a

 Vector   12  Occ=0.000000D+00  E= 9.519700D-01  Symmetry=a

 Vector   13  Occ=0.000000D+00  E= 9.519700D-01  Symmetry=a

 Vector   14  Occ=0.000000D+00  E= 1.193278D+00  Symmetry=a

 Vector   15  Occ=0.000000D+00  E= 1.493592D+00  Symmetry=a

 Vector   16  Occ=0.000000D+00  E= 2.214129D+00  Symmetry=a

 Vector   17  Occ=0.000000D+00  E= 2.214129D+00  Symmetry=a

 Vector   18  Occ=0.000000D+00  E= 2.627497D+00  Symmetry=a

         Total SCF energy =   -100.017713711620

 Vector    2  Occ=2.000000D+00  E=-1.679553D+00

 Vector    3  Occ=2.000000D+00  E=-8.488451D-01

 Vector    4  Occ=2.000000D+00  E=-6.655668D-01

 Vector    5  Occ=2.000000D+00  E=-6.655668D-01

 Vector    6  Occ=0.000000D+00  E=-1.835080D-02

 Vector    7  Occ=0.000000D+00  E=-8.757536D-03

 Vector    8  Occ=0.000000D+00  E=-4.170829D-03

 Vector    9  Occ=0.000000D+00  E= 3.870556D-01

 Vector   10  Occ=0.000000D+00  E= 9.191475D-01

 Vector   11  Occ=0.000000D+00  E= 9.191475D-01

 Vector   12  Occ=0.000000D+00  E= 9.519700D-01

 Vector   13  Occ=0.000000D+00  E= 9.519700D-01

 Vector   14  Occ=0.000000D+00  E= 1.193278D+00

 Vector   15  Occ=0.000000D+00  E= 1.493592D+00

       Multipole analysis of the density wrt the origin
       ------------------------------------------------

     L   x y z        total         open         nuclear
     -   - - -        -----         ----         -------
     0   0 0 0     -0.000000      0.000000     10.000000

     1   1 0 0     -0.000000      0.000000      0.000000
     1   0 1 0      0.634586      0.000000      0.000000
     1   0 0 1     -0.000000      0.000000      0.000000

     2   2 0 0     -3.998082      0.000000      0.000000
     2   1 1 0     -0.000000      0.000000      0.000000
     2   1 0 1     -0.000000      0.000000      0.000000
     2   0 2 0     -2.901786      0.000000      1.816422
     2   0 1 1     -0.000000      0.000000      0.000000

 CCSD total energy / hartree       =      -100.298248012767658
 Total times  cpu:      155.4s     wall:      158.4s
