============================== echo of input deck ==============================
 echo
 start HF
 title "HF"

 memory total 24 gb

 geometry units bohr
 symmetry c1
        F  0.00000000  0.00000000  0.00000000
        H  0.00000000  1.7325  0.00000000
 end

 basis spherical
   * library cc-pVTZ
 end

 mcscf
   active  8
   actelec 10
   multiplicity 1
   maxiter 40
   vectors input HF.mos
   vectors output HF.mos
 end

 task mcscf

 scf
   vectors input HF.mos
   vectors output HF-trash.mos
   noscf
 end

 tce
   2eorb
   2emet 13
   ccsd
   maxiter 500
 end

# set tce:print_integrals T
# set tce:qorb 8
# set tce:qela 5
# set tce:qelb 5

 set tce:qducc T
 set tce:nactv 3
 set tce:nonhf T
 set tce:ducc_model 6

 set tce:printtol 0.02

 task tce
================================================================================

 Output coordinates in a.u. (scale by  1.000000000 to convert to a.u.)

  No.       Tag          Charge          X              Y              Z
 ---- ---------------- ---------- -------------- -------------- --------------
    1 F                    9.0000     0.00000000    -0.17325000     0.00000000
    2 H                    1.0000     0.00000000     1.55925000     0.00000000

 Vector    1  Occ=1.999972D+00  E=-2.628715D+01  Symmetry=a

 Vector    2  Occ=1.999299D+00  E=-1.602324D+00  Symmetry=a

 Vector    3  Occ=1.999299D+00  E=-7.801030D-01  Symmetry=a

 Vector    4  Occ=1.994994D+00  E=-6.478262D-01  Symmetry=a

 Vector    5  Occ=1.977910D+00  E=-6.478011D-01  Symmetry=a

 Vector    6  Occ=2.162275D-02  E=-2.075134D-02  Symmetry=a

 Vector    7  Occ=4.935461D-03  E=-7.181678D-03  Symmetry=a

 Vector    8  Occ=1.967639D-03  E=-6.906265D-04  Symmetry=a

 Vector    9  Occ=0.000000D+00  E= 8.527678D-01  Symmetry=a

 Vector   10  Occ=0.000000D+00  E= 8.527735D-01  Symmetry=a

 Vector   11  Occ=0.000000D+00  E= 9.873676D-01  Symmetry=a

 Vector   12  Occ=0.000000D+00  E= 9.873794D-01  Symmetry=a

 Vector   13  Occ=0.000000D+00  E= 1.043807D+00  Symmetry=a

 Vector   14  Occ=0.000000D+00  E= 1.384563D+00  Symmetry=a

 Vector   15  Occ=0.000000D+00  E= 2.217792D+00  Symmetry=a

 Vector   16  Occ=0.000000D+00  E= 2.225780D+00  Symmetry=a

 Vector   17  Occ=0.000000D+00  E= 2.225780D+00  Symmetry=a

 Vector   18  Occ=0.000000D+00  E= 2.531772D+00  Symmetry=a

         Total SCF energy =   -100.057538270057

 Vector    2  Occ=2.000000D+00  E=-1.602324D+00

 Vector    3  Occ=2.000000D+00  E=-7.801030D-01

 Vector    4  Occ=2.000000D+00  E=-6.478262D-01

 Vector    5  Occ=2.000000D+00  E=-6.478011D-01

 Vector    6  Occ=0.000000D+00  E=-2.075134D-02

 Vector    7  Occ=0.000000D+00  E=-7.181678D-03

 Vector    8  Occ=0.000000D+00  E=-6.906265D-04

 Vector    9  Occ=0.000000D+00  E= 8.527678D-01

 Vector   10  Occ=0.000000D+00  E= 8.527735D-01

 Vector   11  Occ=0.000000D+00  E= 9.873676D-01

 Vector   12  Occ=0.000000D+00  E= 9.873794D-01

 Vector   13  Occ=0.000000D+00  E= 1.043807D+00

 Vector   14  Occ=0.000000D+00  E= 1.384563D+00

 Vector   15  Occ=0.000000D+00  E= 2.217792D+00

       Multipole analysis of the density wrt the origin
       ------------------------------------------------

     L   x y z        total         open         nuclear
     -   - - -        -----         ----         -------
     0   0 0 0     -0.000000      0.000000     10.000000

     1   1 0 0     -0.000000      0.000000      0.000000
     1   0 1 0      0.732912      0.000000      0.000000
     1   0 0 1      0.000000      0.000000      0.000000

     2   2 0 0     -4.119346      0.000000      0.000000
     2   1 1 0     -0.000000      0.000000      0.000000
     2   1 0 1     -0.000000      0.000000      0.000000
     2   0 2 0     -2.617038      0.000000      2.701401
     2   0 1 1     -0.000000      0.000000      0.000000

 CCSD total energy / hartree       =      -100.344813747024801
 Total times  cpu:     1841.3s     wall:     1917.7s
