============================== echo of input deck ==============================
 echo
 start HF
 title "HF"

 memory total 24 gb

 geometry units bohr
 symmetry c1
        F  0.00000000  0.00000000  0.00000000
        H  0.00000000  1.819125  0.00000000
 end

 basis spherical
   * library cc-pVTZ
 end

 mcscf
   active  8
   actelec 10
   multiplicity 1
   maxiter 40
   vectors input HF.mos
   vectors output HF.mos
 end

 task mcscf

 scf
   vectors input HF.mos
   vectors output HF-trash.mos
   noscf
 end

 tce
   2eorb
   2emet 13
   ccsd
   maxiter 500
 end

# set tce:print_integrals T
# set tce:qorb 8
# set tce:qela 5
# set tce:qelb 5

 set tce:qducc T
 set tce:nactv 3
 set tce:nonhf T
 set tce:ducc_model 6

 set tce:printtol 0.02

 task tce
================================================================================

 Output coordinates in a.u. (scale by  1.000000000 to convert to a.u.)

  No.       Tag          Charge          X              Y              Z
 ---- ---------------- ---------- -------------- -------------- --------------
    1 F                    9.0000     0.00000000    -0.18191250     0.00000000
    2 H                    1.0000     0.00000000     1.63721250     0.00000000

 Vector    1  Occ=1.999974D+00  E=-2.628883D+01  Symmetry=a

 Vector    2  Occ=1.999274D+00  E=-1.590093D+00  Symmetry=a

 Vector    3  Occ=1.999274D+00  E=-7.675030D-01  Symmetry=a

 Vector    4  Occ=1.994862D+00  E=-6.447050D-01  Symmetry=a

 Vector    5  Occ=1.974182D+00  E=-6.447048D-01  Symmetry=a

 Vector    6  Occ=2.547772D-02  E=-2.804639D-02  Symmetry=a

 Vector    7  Occ=4.961631D-03  E=-8.222966D-03  Symmetry=a

 Vector    8  Occ=1.994362D-03  E=-3.740410D-03  Symmetry=a

 Vector    9  Occ=0.000000D+00  E= 3.772400D-01  Symmetry=a

 Vector   10  Occ=0.000000D+00  E= 8.371009D-01  Symmetry=a

 Vector   11  Occ=0.000000D+00  E= 8.371009D-01  Symmetry=a

 Vector   12  Occ=0.000000D+00  E= 9.953674D-01  Symmetry=a

 Vector   13  Occ=0.000000D+00  E= 9.953674D-01  Symmetry=a

 Vector   14  Occ=0.000000D+00  E= 1.170340D+00  Symmetry=a

 Vector   15  Occ=0.000000D+00  E= 1.569022D+00  Symmetry=a

 Vector   16  Occ=0.000000D+00  E= 2.230963D+00  Symmetry=a

 Vector   17  Occ=0.000000D+00  E= 2.230963D+00  Symmetry=a

 Vector   18  Occ=0.000000D+00  E= 2.498763D+00  Symmetry=a

         Total SCF energy =   -100.053178451198

 Vector    2  Occ=2.000000D+00  E=-1.590093D+00

 Vector    3  Occ=2.000000D+00  E=-7.675030D-01

 Vector    4  Occ=2.000000D+00  E=-6.447050D-01

 Vector    5  Occ=2.000000D+00  E=-6.447048D-01

 Vector    6  Occ=0.000000D+00  E=-2.804639D-02

 Vector    7  Occ=0.000000D+00  E=-8.222966D-03

 Vector    8  Occ=0.000000D+00  E=-3.740410D-03

 Vector    9  Occ=0.000000D+00  E= 3.772400D-01

 Vector   10  Occ=0.000000D+00  E= 8.371009D-01

 Vector   11  Occ=0.000000D+00  E= 8.371009D-01

 Vector   12  Occ=0.000000D+00  E= 9.953674D-01

 Vector   13  Occ=0.000000D+00  E= 9.953674D-01

 Vector   14  Occ=0.000000D+00  E= 1.170340D+00

 Vector   15  Occ=0.000000D+00  E= 1.569022D+00

       Multipole analysis of the density wrt the origin
       ------------------------------------------------

     L   x y z        total         open         nuclear
     -   - - -        -----         ----         -------
     0   0 0 0     -0.000000      0.000000     10.000000

     1   1 0 0     -0.000000      0.000000      0.000000
     1   0 1 0      0.758111      0.000000      0.000000
     1   0 0 1      0.000000      0.000000      0.000000

     2   2 0 0     -4.149961      0.000000      0.000000
     2   1 1 0     -0.000000      0.000000      0.000000
     2   1 0 1      0.000000      0.000000      0.000000
     2   0 2 0     -2.524687      0.000000      2.978294
     2   0 1 1     -0.000000      0.000000      0.000000

 CCSD total energy / hartree       =      -100.342387689308765
 Total times  cpu:      159.1s     wall:      161.6s
