============================== echo of input deck ==============================
 echo
 start H2O
 title "H2O"

 memory total 24 gb

 geometry units angstrom
 symmetry c1
   zmatrix
     O
     H1 O 0.97551
     H2 O 0.97551 H1 100.70
   end
 end

 basis spherical
   * library cc-pVTZ
 end

 tce
   2eorb
   2emet 13
   ccsd
   maxiter 300
 end

# set tce:print_integrals T
# set tce:qorb 8
# set tce:qela 5
# set tce:qelb 5

 set tce:qducc T
 set tce:nactv 3
 set tce:nonhf T
 set tce:ducc_model 6

 set tce:printtol 0.02

 task tce
================================================================================

 Output coordinates in angstroms (scale by  1.889725989 to convert to a.u.)

  No.       Tag          Charge          X              Y              Z
 ---- ---------------- ---------- -------------- -------------- --------------
    1 O                    8.0000    -0.09585486     0.00000000    -0.07943904
    2 H1                   1.0000    -0.09585486     0.00000000     0.89607096
    3 H2                   1.0000     0.86269375     0.00000000    -0.26055868

         Total SCF energy =    -76.054862955011

 Vector    2  Occ=2.000000D+00  E=-1.339269D+00

 Vector    3  Occ=2.000000D+00  E=-6.927025D-01

 Vector    4  Occ=2.000000D+00  E=-5.818051D-01

 Vector    5  Occ=2.000000D+00  E=-5.043292D-01

 Vector    6  Occ=0.000000D+00  E= 1.395822D-01

 Vector    7  Occ=0.000000D+00  E= 2.030581D-01

 Vector    8  Occ=0.000000D+00  E= 5.304496D-01

 Vector    9  Occ=0.000000D+00  E= 6.044924D-01

 Vector   10  Occ=0.000000D+00  E= 6.693664D-01

 Vector   11  Occ=0.000000D+00  E= 7.797186D-01

 Vector   12  Occ=0.000000D+00  E= 7.862603D-01

 Vector   13  Occ=0.000000D+00  E= 8.074003D-01

 Vector   14  Occ=0.000000D+00  E= 8.655338D-01

 Vector   15  Occ=0.000000D+00  E= 9.376799D-01

       Multipole analysis of the density wrt the origin
       ------------------------------------------------

     L   x y z        total         open         nuclear
     -   - - -        -----         ----         -------
     0   0 0 0     -0.000000      0.000000     10.000000

     1   1 0 0      0.636060      0.000000      0.000000
     1   0 1 0     -0.000000      0.000000      0.000000
     1   0 0 1      0.527130      0.000000      0.000000

     2   2 0 0     -3.921523      0.000000      2.953034
     2   1 1 0      0.000000      0.000000      0.000000
     2   1 0 1     -0.605281      0.000000     -0.891902
     2   0 2 0     -5.450489      0.000000      0.000000
     2   0 1 1     -0.000000      0.000000      0.000000

 CCSD total energy / hartree       =       -76.337114036071966
 Total times  cpu:      645.1s     wall:      645.1s
