============================== echo of input deck ==============================
 echo
 start H2O
 title "H2O"

 memory total 24 gb

 geometry units angstrom
 symmetry c1
   zmatrix
     O
     H1 O 0.97551
     H2 O 0.97551 H1 100.50
   end
 end

 basis spherical
   * library cc-pVTZ
 end

 tce
   2eorb
   2emet 13
   ccsd
   maxiter 300
 end

# set tce:print_integrals T
# set tce:qorb 8
# set tce:qela 5
# set tce:qelb 5

 set tce:qducc T
 set tce:nactv 3
 set tce:nonhf T
 set tce:ducc_model 6

 set tce:printtol 0.02

 task tce
================================================================================

 Output coordinates in angstroms (scale by  1.889725989 to convert to a.u.)

  No.       Tag          Charge          X              Y              Z
 ---- ---------------- ---------- -------------- -------------- --------------
    1 O                    8.0000    -0.09591750     0.00000000    -0.07977374
    2 H1                   1.0000    -0.09591750     0.00000000     0.89573626
    3 H2                   1.0000     0.86325750     0.00000000    -0.25754632

         Total SCF energy =    -76.054817865233

 Vector    2  Occ=2.000000D+00  E=-1.339422D+00

 Vector    3  Occ=2.000000D+00  E=-6.923145D-01

 Vector    4  Occ=2.000000D+00  E=-5.822033D-01

 Vector    5  Occ=2.000000D+00  E=-5.043957D-01

 Vector    6  Occ=0.000000D+00  E= 1.395387D-01

 Vector    7  Occ=0.000000D+00  E= 2.030962D-01

 Vector    8  Occ=0.000000D+00  E= 5.301446D-01

 Vector    9  Occ=0.000000D+00  E= 6.051395D-01

 Vector   10  Occ=0.000000D+00  E= 6.692611D-01

 Vector   11  Occ=0.000000D+00  E= 7.788833D-01

 Vector   12  Occ=0.000000D+00  E= 7.862155D-01

 Vector   13  Occ=0.000000D+00  E= 8.075194D-01

 Vector   14  Occ=0.000000D+00  E= 8.659763D-01

 Vector   15  Occ=0.000000D+00  E= 9.368670D-01

       Multipole analysis of the density wrt the origin
       ------------------------------------------------

     L   x y z        total         open         nuclear
     -   - - -        -----         ----         -------
     0   0 0 0     -0.000000      0.000000     10.000000

     1   1 0 0      0.636075      0.000000     -0.000000
     1   0 1 0     -0.000000      0.000000      0.000000
     1   0 0 1      0.529018      0.000000     -0.000000

     2   2 0 0     -3.919596      0.000000      2.956895
     2   1 1 0      0.000000      0.000000      0.000000
     2   1 0 1     -0.600128      0.000000     -0.882167
     2   0 2 0     -5.450342      0.000000      0.000000
     2   0 1 1      0.000000      0.000000      0.000000

 CCSD total energy / hartree       =       -76.337087295900275
 Total times  cpu:      652.4s     wall:      652.4s
