============================== echo of input deck ==============================
 echo
 start H2O
 title "H2O"

 memory total 24 gb

 geometry units angstrom
 symmetry c1
   zmatrix
     O
     H1 O 0.97551
     H2 O 0.97551 H1 100.25
   end
 end

 basis spherical
   * library cc-pVTZ
 end

 tce
   2eorb
   2emet 13
   ccsd
   maxiter 300
 end

# set tce:print_integrals T
# set tce:qorb 8
# set tce:qela 5
# set tce:qelb 5

 set tce:qducc T
 set tce:nactv 3
 set tce:nonhf T
 set tce:ducc_model 6

 set tce:printtol 0.02

 task tce
================================================================================

 Output coordinates in angstroms (scale by  1.889725989 to convert to a.u.)

  No.       Tag          Charge          X              Y              Z
 ---- ---------------- ---------- -------------- -------------- --------------
    1 O                    8.0000    -0.09599415     0.00000000    -0.08019243
    2 H1                   1.0000    -0.09599415     0.00000000     0.89531757
    3 H2                   1.0000     0.86394739     0.00000000    -0.25377814

         Total SCF energy =    -76.054758348562

 Vector    2  Occ=2.000000D+00  E=-1.339612D+00

 Vector    3  Occ=2.000000D+00  E=-6.918280D-01

 Vector    4  Occ=2.000000D+00  E=-5.827014D-01

 Vector    5  Occ=2.000000D+00  E=-5.044788D-01

 Vector    6  Occ=0.000000D+00  E= 1.394835D-01

 Vector    7  Occ=0.000000D+00  E= 2.031439D-01

 Vector    8  Occ=0.000000D+00  E= 5.297663D-01

 Vector    9  Occ=0.000000D+00  E= 6.059407D-01

 Vector   10  Occ=0.000000D+00  E= 6.691326D-01

 Vector   11  Occ=0.000000D+00  E= 7.778549D-01

 Vector   12  Occ=0.000000D+00  E= 7.861593D-01

 Vector   13  Occ=0.000000D+00  E= 8.076680D-01

 Vector   14  Occ=0.000000D+00  E= 8.665307D-01

 Vector   15  Occ=0.000000D+00  E= 9.358526D-01

       Multipole analysis of the density wrt the origin
       ------------------------------------------------

     L   x y z        total         open         nuclear
     -   - - -        -----         ----         -------
     0   0 0 0     -0.000000      0.000000     10.000000

     1   1 0 0      0.636086      0.000000      0.000000
     1   0 1 0     -0.000000      0.000000      0.000000
     1   0 0 1      0.531379      0.000000      0.000000

     2   2 0 0     -3.917239      0.000000      2.961623
     2   1 1 0     -0.000000      0.000000      0.000000
     2   1 0 1     -0.593664      0.000000     -0.869955
     2   0 2 0     -5.450159      0.000000      0.000000
     2   0 1 1      0.000000      0.000000      0.000000

 CCSD total energy / hartree       =       -76.337050912971478
 Total times  cpu:      663.3s     wall:      663.3s
