============================== echo of input deck ==============================
 echo
 start H2O
 title "H2O"

 memory total 24 gb

 geometry units angstrom
 symmetry c1
   zmatrix
     O
     H1 O 0.97551
     H2 O 0.97551 H1 100.60
   end
 end

 basis spherical
   * library cc-pVTZ
 end

 tce
   2eorb
   2emet 13
   ccsd
   maxiter 300
 end

# set tce:print_integrals T
# set tce:qorb 8
# set tce:qela 5
# set tce:qelb 5

 set tce:qducc T
 set tce:nactv 3
 set tce:nonhf T
 set tce:ducc_model 6

 set tce:printtol 0.02

 task tce
================================================================================

 Output coordinates in angstroms (scale by  1.889725989 to convert to a.u.)

  No.       Tag          Charge          X              Y              Z
 ---- ---------------- ---------- -------------- -------------- --------------
    1 O                    8.0000    -0.09588633     0.00000000    -0.07960636
    2 H1                   1.0000    -0.09588633     0.00000000     0.89590364
    3 H2                   1.0000     0.86297694     0.00000000    -0.25905274

         Total SCF energy =    -76.054840690094

 Vector    2  Occ=2.000000D+00  E=-1.339345D+00

 Vector    3  Occ=2.000000D+00  E=-6.925086D-01

 Vector    4  Occ=2.000000D+00  E=-5.820042D-01

 Vector    5  Occ=2.000000D+00  E=-5.043625D-01

 Vector    6  Occ=0.000000D+00  E= 1.395605D-01

 Vector    7  Occ=0.000000D+00  E= 2.030771D-01

 Vector    8  Occ=0.000000D+00  E= 5.302968D-01

 Vector    9  Occ=0.000000D+00  E= 6.048166D-01

 Vector   10  Occ=0.000000D+00  E= 6.693135D-01

 Vector   11  Occ=0.000000D+00  E= 7.792995D-01

 Vector   12  Occ=0.000000D+00  E= 7.862379D-01

 Vector   13  Occ=0.000000D+00  E= 8.074598D-01

 Vector   14  Occ=0.000000D+00  E= 8.657549D-01

 Vector   15  Occ=0.000000D+00  E= 9.372733D-01

       Multipole analysis of the density wrt the origin
       ------------------------------------------------

     L   x y z        total         open         nuclear
     -   - - -        -----         ----         -------
     0   0 0 0      0.000000      0.000000     10.000000

     1   1 0 0      0.636068      0.000000     -0.000000
     1   0 1 0      0.000000      0.000000      0.000000
     1   0 0 1      0.528074      0.000000     -0.000000

     2   2 0 0     -3.920555      0.000000      2.954973
     2   1 1 0     -0.000000      0.000000      0.000000
     2   1 0 1     -0.602707      0.000000     -0.887039
     2   0 2 0     -5.450415      0.000000      0.000000
     2   0 1 1     -0.000000      0.000000      0.000000

 CCSD total energy / hartree       =       -76.337100928448805
 Total times  cpu:      661.0s     wall:      661.0s
