============================== echo of input deck ==============================
 echo
 start H2O
 title "H2O"

 memory total 24 gb

 geometry units angstrom
 symmetry c1
   zmatrix
     O
     H1 O 0.97551
     H2 O 0.97551 H1 100.75
   end
 end

 basis spherical
   * library cc-pVTZ
 end

 tce
   2eorb
   2emet 13
   ccsd
   maxiter 300
 end

# set tce:print_integrals T
# set tce:qorb 8
# set tce:qela 5
# set tce:qelb 5

 set tce:qducc T
 set tce:nactv 3
 set tce:nonhf T
 set tce:ducc_model 6

 set tce:printtol 0.02

 task tce
================================================================================

 Output coordinates in angstroms (scale by  1.889725989 to convert to a.u.)

  No.       Tag          Charge          X              Y              Z
 ---- ---------------- ---------- -------------- -------------- --------------
    1 O                    8.0000    -0.09583902     0.00000000    -0.07935539
    2 H1                   1.0000    -0.09583902     0.00000000     0.89615461
    3 H2                   1.0000     0.86255117     0.00000000    -0.26131146

         Total SCF energy =    -76.054873877718

 Vector    2  Occ=2.000000D+00  E=-1.339231D+00

 Vector    3  Occ=2.000000D+00  E=-6.927993D-01

 Vector    4  Occ=2.000000D+00  E=-5.817056D-01

 Vector    5  Occ=2.000000D+00  E=-5.043125D-01

 Vector    6  Occ=0.000000D+00  E= 1.395930D-01

 Vector    7  Occ=0.000000D+00  E= 2.030485D-01

 Vector    8  Occ=0.000000D+00  E= 5.305261D-01

 Vector    9  Occ=0.000000D+00  E= 6.043299D-01

 Vector   10  Occ=0.000000D+00  E= 6.693931D-01

 Vector   11  Occ=0.000000D+00  E= 7.799291D-01

 Vector   12  Occ=0.000000D+00  E= 7.862715D-01

 Vector   13  Occ=0.000000D+00  E= 8.073705D-01

 Vector   14  Occ=0.000000D+00  E= 8.654233D-01

 Vector   15  Occ=0.000000D+00  E= 9.378833D-01

       Multipole analysis of the density wrt the origin
       ------------------------------------------------

     L   x y z        total         open         nuclear
     -   - - -        -----         ----         -------
     0   0 0 0     -0.000000      0.000000     10.000000

     1   1 0 0      0.636055      0.000000      0.000000
     1   0 1 0     -0.000000      0.000000      0.000000
     1   0 0 1      0.526658      0.000000      0.000000

     2   2 0 0     -3.922011      0.000000      2.952058
     2   1 1 0     -0.000000      0.000000      0.000000
     2   1 0 1     -0.606567      0.000000     -0.894331
     2   0 2 0     -5.450526      0.000000      0.000000
     2   0 1 1      0.000000      0.000000      0.000000

 CCSD total energy / hartree       =       -76.337120393272755
 Total times  cpu:      636.2s     wall:      636.2s
