============================== echo of input deck ==============================
 echo
 start H2O
 title "H2O"

 memory total 24 gb

 geometry units angstrom
 symmetry c1
   zmatrix
     O
     H1 O 0.97551
     H2 O 0.97551 H1 101.90
   end
 end

 basis spherical
   * library cc-pVTZ
 end

 tce
   2eorb
   2emet 13
   ccsd
   maxiter 300
 end

# set tce:print_integrals T
# set tce:qorb 8
# set tce:qela 5
# set tce:qelb 5

 set tce:qducc T
 set tce:nactv 3
 set tce:nonhf T
 set tce:ducc_model 6

 set tce:printtol 0.02

 task tce
================================================================================

 Output coordinates in angstroms (scale by  1.889725989 to convert to a.u.)

  No.       Tag          Charge          X              Y              Z
 ---- ---------------- ---------- -------------- -------------- --------------
    1 O                    8.0000    -0.09545453     0.00000000    -0.07743558
    2 H1                   1.0000    -0.09545453     0.00000000     0.89807442
    3 H2                   1.0000     0.85909077     0.00000000    -0.27858982

         Total SCF energy =    -76.055086729567

 Vector    2  Occ=2.000000D+00  E=-1.338361D+00

 Vector    3  Occ=2.000000D+00  E=-6.950091D-01

 Vector    4  Occ=2.000000D+00  E=-5.794199D-01

 Vector    5  Occ=2.000000D+00  E=-5.039269D-01

 Vector    6  Occ=0.000000D+00  E= 1.398321D-01

 Vector    7  Occ=0.000000D+00  E= 2.028295D-01

 Vector    8  Occ=0.000000D+00  E= 5.323225D-01

 Vector    9  Occ=0.000000D+00  E= 6.005092D-01

 Vector   10  Occ=0.000000D+00  E= 6.700458D-01

 Vector   11  Occ=0.000000D+00  E= 7.849567D-01

 Vector   12  Occ=0.000000D+00  E= 7.865279D-01

 Vector   13  Occ=0.000000D+00  E= 8.066817D-01

 Vector   14  Occ=0.000000D+00  E= 8.628988D-01

 Vector   15  Occ=0.000000D+00  E= 9.425802D-01

       Multipole analysis of the density wrt the origin
       ------------------------------------------------

     L   x y z        total         open         nuclear
     -   - - -        -----         ----         -------
     0   0 0 0     -0.000000      0.000000     10.000000

     1   1 0 0      0.635831      0.000000     -0.000000
     1   0 1 0     -0.000000      0.000000      0.000000
     1   0 0 1      0.515805      0.000000     -0.000000

     2   2 0 0     -3.933850      0.000000      2.928419
     2   1 1 0      0.000000      0.000000      0.000000
     2   1 0 1     -0.635854      0.000000     -0.949641
     2   0 2 0     -5.451396      0.000000      0.000000
     2   0 1 1     -0.000000      0.000000      0.000000

 CCSD total energy / hartree       =       -76.337230665937867
 Total times  cpu:      657.8s     wall:      657.8s
