============================== echo of input deck ==============================
 echo
 start H2O
 title "H2O"

 memory total 24 gb

 geometry units angstrom
 symmetry c1
   zmatrix
     O
     H1 O 0.97551
     H2 O 0.97551 H1 101.50
   end
 end

 basis spherical
   * library cc-pVTZ
 end

 tce
   2eorb
   2emet 13
   ccsd
   maxiter 300
 end

# set tce:print_integrals T
# set tce:qorb 8
# set tce:qela 5
# set tce:qelb 5

 set tce:qducc T
 set tce:nactv 3
 set tce:nonhf T
 set tce:ducc_model 6

 set tce:printtol 0.02

 task tce
================================================================================

 Output coordinates in angstroms (scale by  1.889725989 to convert to a.u.)

  No.       Tag          Charge          X              Y              Z
 ---- ---------------- ---------- -------------- -------------- --------------
    1 O                    8.0000    -0.09559263     0.00000000    -0.07810246
    2 H1                   1.0000    -0.09559263     0.00000000     0.89740754
    3 H2                   1.0000     0.86033371     0.00000000    -0.27258787

         Total SCF energy =    -76.055021005614

 Vector    2  Occ=2.000000D+00  E=-1.338663D+00

 Vector    3  Occ=2.000000D+00  E=-6.942444D-01

 Vector    4  Occ=2.000000D+00  E=-5.802141D-01

 Vector    5  Occ=2.000000D+00  E=-5.040615D-01

 Vector    6  Occ=0.000000D+00  E= 1.397510D-01

 Vector    7  Occ=0.000000D+00  E= 2.029057D-01

 Vector    8  Occ=0.000000D+00  E= 5.316900D-01

 Vector    9  Occ=0.000000D+00  E= 6.018551D-01

 Vector   10  Occ=0.000000D+00  E= 6.698101D-01

 Vector   11  Occ=0.000000D+00  E= 7.831683D-01

 Vector   12  Occ=0.000000D+00  E= 7.864390D-01

 Vector   13  Occ=0.000000D+00  E= 8.069221D-01

 Vector   14  Occ=0.000000D+00  E= 8.637733D-01

 Vector   15  Occ=0.000000D+00  E= 9.409425D-01

       Multipole analysis of the density wrt the origin
       ------------------------------------------------

     L   x y z        total         open         nuclear
     -   - - -        -----         ----         -------
     0   0 0 0     -0.000000      0.000000     10.000000

     1   1 0 0      0.635933      0.000000      0.000000
     1   0 1 0      0.000000      0.000000      0.000000
     1   0 0 1      0.519579      0.000000      0.000000

     2   2 0 0     -3.929596      0.000000      2.936899
     2   1 1 0     -0.000000      0.000000      0.000000
     2   1 0 1     -0.625731      0.000000     -0.930526
     2   0 2 0     -5.451089      0.000000      0.000000
     2   0 1 1      0.000000      0.000000      0.000000

 CCSD total energy / hartree       =       -76.337200092842409
 Total times  cpu:      657.1s     wall:      657.1s
