============================== echo of input deck ==============================
 echo
 start H2O
 title "H2O"

 memory total 24 gb

 geometry units angstrom
 symmetry c1
   zmatrix
     O
     H1 O 0.97551
     H2 O 0.97551 H1 101.20
   end
 end

 basis spherical
   * library cc-pVTZ
 end

 tce
   2eorb
   2emet 13
   ccsd
   maxiter 300
 end

# set tce:print_integrals T
# set tce:qorb 8
# set tce:qela 5
# set tce:qelb 5

 set tce:qducc T
 set tce:nactv 3
 set tce:nonhf T
 set tce:ducc_model 6

 set tce:printtol 0.02

 task tce
================================================================================

 Output coordinates in angstroms (scale by  1.889725989 to convert to a.u.)

  No.       Tag          Charge          X              Y              Z
 ---- ---------------- ---------- -------------- -------------- --------------
    1 O                    8.0000    -0.09569316     0.00000000    -0.07860324
    2 H1                   1.0000    -0.09569316     0.00000000     0.89690676
    3 H2                   1.0000     0.86123841     0.00000000    -0.26808080

         Total SCF energy =    -76.054965906477

 Vector    2  Occ=2.000000D+00  E=-1.338890D+00

 Vector    3  Occ=2.000000D+00  E=-6.936681D-01

 Vector    4  Occ=2.000000D+00  E=-5.808104D-01

 Vector    5  Occ=2.000000D+00  E=-5.041621D-01

 Vector    6  Occ=0.000000D+00  E= 1.396887D-01

 Vector    7  Occ=0.000000D+00  E= 2.029628D-01

 Vector    8  Occ=0.000000D+00  E= 5.312210D-01

 Vector    9  Occ=0.000000D+00  E= 6.028530D-01

 Vector   10  Occ=0.000000D+00  E= 6.696395D-01

 Vector   11  Occ=0.000000D+00  E= 7.818545D-01

 Vector   12  Occ=0.000000D+00  E= 7.863721D-01

 Vector   13  Occ=0.000000D+00  E= 8.071018D-01

 Vector   14  Occ=0.000000D+00  E= 8.644317D-01

 Vector   15  Occ=0.000000D+00  E= 9.397170D-01

       Multipole analysis of the density wrt the origin
       ------------------------------------------------

     L   x y z        total         open         nuclear
     -   - - -        -----         ----         -------
     0   0 0 0     -0.000000      0.000000     10.000000

     1   1 0 0      0.635993      0.000000     -0.000000
     1   0 1 0      0.000000      0.000000      0.000000
     1   0 0 1      0.522410      0.000000      0.000000

     2   2 0 0     -3.926500      0.000000      2.943079
     2   1 1 0     -0.000000      0.000000      0.000000
     2   1 0 1     -0.618093      0.000000     -0.916103
     2   0 2 0     -5.450862      0.000000      0.000000
     2   0 1 1      0.000000      0.000000      0.000000

 CCSD total energy / hartree       =       -76.337171727488879
 Total times  cpu:      749.3s     wall:      749.3s
