============================== echo of input deck ==============================
 echo
 start H2O
 title "H2O"

 memory total 24 gb

 geometry units angstrom
 symmetry c1
   zmatrix
     O
     H1 O 0.97551
     H2 O 0.97551 H1 101.95
   end
 end

 basis spherical
   * library cc-pVTZ
 end

 tce
   2eorb
   2emet 13
   ccsd
   maxiter 300
 end

# set tce:print_integrals T
# set tce:qorb 8
# set tce:qela 5
# set tce:qelb 5

 set tce:qducc T
 set tce:nactv 3
 set tce:nonhf T
 set tce:ducc_model 6

 set tce:printtol 0.02

 task tce
================================================================================

 Output coordinates in angstroms (scale by  1.889725989 to convert to a.u.)

  No.       Tag          Charge          X              Y              Z
 ---- ---------------- ---------- -------------- -------------- --------------
    1 O                    8.0000    -0.09543694     0.00000000    -0.07735228
    2 H1                   1.0000    -0.09543694     0.00000000     0.89815772
    3 H2                   1.0000     0.85893246     0.00000000    -0.27933945

         Total SCF energy =    -76.055094325113

 Vector    2  Occ=2.000000D+00  E=-1.338324D+00

 Vector    3  Occ=2.000000D+00  E=-6.951044D-01

 Vector    4  Occ=2.000000D+00  E=-5.793206D-01

 Vector    5  Occ=2.000000D+00  E=-5.039100D-01

 Vector    6  Occ=0.000000D+00  E= 1.398421D-01

 Vector    7  Occ=0.000000D+00  E= 2.028200D-01

 Vector    8  Occ=0.000000D+00  E= 5.324021D-01

 Vector    9  Occ=0.000000D+00  E= 6.003398D-01

 Vector   10  Occ=0.000000D+00  E= 6.700759D-01

 Vector   11  Occ=0.000000D+00  E= 7.851832D-01

 Vector   12  Occ=0.000000D+00  E= 7.865390D-01

 Vector   13  Occ=0.000000D+00  E= 8.066516D-01

 Vector   14  Occ=0.000000D+00  E= 8.627898D-01

 Vector   15  Occ=0.000000D+00  E= 9.427852D-01

       Multipole analysis of the density wrt the origin
       ------------------------------------------------

     L   x y z        total         open         nuclear
     -   - - -        -----         ----         -------
     0   0 0 0     -0.000000      0.000000     10.000000

     1   1 0 0      0.635816      0.000000      0.000000
     1   0 1 0     -0.000000      0.000000      0.000000
     1   0 0 1      0.515333      0.000000      0.000000

     2   2 0 0     -3.934392      0.000000      2.927340
     2   1 1 0     -0.000000      0.000000      0.000000
     2   1 0 1     -0.637115      0.000000     -0.952021
     2   0 2 0     -5.451434      0.000000      0.000000
     2   0 1 1     -0.000000      0.000000      0.000000

 CCSD total energy / hartree       =       -76.337233907408773
 Total times  cpu:      801.3s     wall:      801.3s
