============================== echo of input deck ==============================
 echo
 start H2O
 title "H2O"

 memory total 24 gb

 geometry units angstrom
 symmetry c1
   zmatrix
     O
     H1 O 0.97551
     H2 O 0.97551 H1 101.35
   end
 end

 basis spherical
   * library cc-pVTZ
 end

 tce
   2eorb
   2emet 13
   ccsd
   maxiter 300
 end

# set tce:print_integrals T
# set tce:qorb 8
# set tce:qela 5
# set tce:qelb 5

 set tce:qducc T
 set tce:nactv 3
 set tce:nonhf T
 set tce:ducc_model 6

 set tce:printtol 0.02

 task tce
================================================================================

 Output coordinates in angstroms (scale by  1.889725989 to convert to a.u.)

  No.       Tag          Charge          X              Y              Z
 ---- ---------------- ---------- -------------- -------------- --------------
    1 O                    8.0000    -0.09564322     0.00000000    -0.07835279
    2 H1                   1.0000    -0.09564322     0.00000000     0.89715721
    3 H2                   1.0000     0.86078901     0.00000000    -0.27033493

         Total SCF energy =    -76.054994079699

 Vector    2  Occ=2.000000D+00  E=-1.338776D+00

 Vector    3  Occ=2.000000D+00  E=-6.939565D-01

 Vector    4  Occ=2.000000D+00  E=-5.805122D-01

 Vector    5  Occ=2.000000D+00  E=-5.041118D-01

 Vector    6  Occ=0.000000D+00  E= 1.397200D-01

 Vector    7  Occ=0.000000D+00  E= 2.029342D-01

 Vector    8  Occ=0.000000D+00  E= 5.314549D-01

 Vector    9  Occ=0.000000D+00  E= 6.023553D-01

 Vector   10  Occ=0.000000D+00  E= 6.697241D-01

 Vector   11  Occ=0.000000D+00  E= 7.825084D-01

 Vector   12  Occ=0.000000D+00  E= 7.864055D-01

 Vector   13  Occ=0.000000D+00  E= 8.070120D-01

 Vector   14  Occ=0.000000D+00  E= 8.641022D-01

 Vector   15  Occ=0.000000D+00  E= 9.403294D-01

       Multipole analysis of the density wrt the origin
       ------------------------------------------------

     L   x y z        total         open         nuclear
     -   - - -        -----         ----         -------
     0   0 0 0     -0.000000      0.000000     10.000000

     1   1 0 0      0.635965      0.000000      0.000000
     1   0 1 0      0.000000      0.000000      0.000000
     1   0 0 1      0.520995      0.000000     -0.000000

     2   2 0 0     -3.928038      0.000000      2.940009
     2   1 1 0     -0.000000      0.000000      0.000000
     2   1 0 1     -0.621917      0.000000     -0.923324
     2   0 2 0     -5.450975      0.000000      0.000000
     2   0 1 1      0.000000      0.000000      0.000000

 CCSD total energy / hartree       =       -76.337186494162140
 Total times  cpu:      632.1s     wall:      632.1s
