============================== echo of input deck ==============================
 echo
 start H2O
 title "H2O"

 memory total 24 gb

 geometry units angstrom
 symmetry c1
   zmatrix
     O
     H1 O 0.97551
     H2 O 0.97551 H1 101.45
   end
 end

 basis spherical
   * library cc-pVTZ
 end

 tce
   2eorb
   2emet 13
   ccsd
   maxiter 300
 end

# set tce:print_integrals T
# set tce:qorb 8
# set tce:qela 5
# set tce:qelb 5

 set tce:qducc T
 set tce:nactv 3
 set tce:nonhf T
 set tce:ducc_model 6

 set tce:printtol 0.02

 task tce
================================================================================

 Output coordinates in angstroms (scale by  1.889725989 to convert to a.u.)

  No.       Tag          Charge          X              Y              Z
 ---- ---------------- ---------- -------------- -------------- --------------
    1 O                    8.0000    -0.09560957     0.00000000    -0.07818589
    2 H1                   1.0000    -0.09560957     0.00000000     0.89732411
    3 H2                   1.0000     0.86048613     0.00000000    -0.27183702

         Total SCF energy =    -76.055012168761

 Vector    2  Occ=2.000000D+00  E=-1.338701D+00

 Vector    3  Occ=2.000000D+00  E=-6.941485D-01

 Vector    4  Occ=2.000000D+00  E=-5.803135D-01

 Vector    5  Occ=2.000000D+00  E=-5.040783D-01

 Vector    6  Occ=0.000000D+00  E= 1.397407D-01

 Vector    7  Occ=0.000000D+00  E= 2.029152D-01

 Vector    8  Occ=0.000000D+00  E= 5.316115D-01

 Vector    9  Occ=0.000000D+00  E= 6.020221D-01

 Vector   10  Occ=0.000000D+00  E= 6.697813D-01

 Vector   11  Occ=0.000000D+00  E= 7.829477D-01

 Vector   12  Occ=0.000000D+00  E= 7.864278D-01

 Vector   13  Occ=0.000000D+00  E= 8.069521D-01

 Vector   14  Occ=0.000000D+00  E= 8.638829D-01

 Vector   15  Occ=0.000000D+00  E= 9.407381D-01

       Multipole analysis of the density wrt the origin
       ------------------------------------------------

     L   x y z        total         open         nuclear
     -   - - -        -----         ----         -------
     0   0 0 0     -0.000000      0.000000     10.000000

     1   1 0 0      0.635944      0.000000      0.000000
     1   0 1 0      0.000000      0.000000      0.000000
     1   0 0 1      0.520051      0.000000      0.000000

     2   2 0 0     -3.929074      0.000000      2.937940
     2   1 1 0     -0.000000      0.000000      0.000000
     2   1 0 1     -0.624461      0.000000     -0.928128
     2   0 2 0     -5.451051      0.000000      0.000000
     2   0 1 1     -0.000000      0.000000      0.000000

 CCSD total energy / hartree       =       -76.337195689583709
 Total times  cpu:      638.5s     wall:      638.5s
