============================== echo of input deck ==============================
 echo
 start H2O
 title "H2O"

 memory total 24 gb

 geometry units angstrom
 symmetry c1
   zmatrix
     O
     H1 O 0.97551
     H2 O 0.97551 H1 102.85
   end
 end

 basis spherical
   * library cc-pVTZ
 end

 tce
   2eorb
   2emet 13
   ccsd
   maxiter 300
 end

# set tce:print_integrals T
# set tce:qorb 8
# set tce:qela 5
# set tce:qelb 5

 set tce:qducc T
 set tce:nactv 3
 set tce:nonhf T
 set tce:ducc_model 6

 set tce:printtol 0.02

 task tce
================================================================================

 Output coordinates in angstroms (scale by  1.889725989 to convert to a.u.)

  No.       Tag          Charge          X              Y              Z
 ---- ---------------- ---------- -------------- -------------- --------------
    1 O                    8.0000    -0.09510790     0.00000000    -0.07585572
    2 H1                   1.0000    -0.09510790     0.00000000     0.89965428
    3 H2                   1.0000     0.85597108     0.00000000    -0.29280855

         Total SCF energy =    -76.055207633763

 Vector    2  Occ=2.000000D+00  E=-1.337650D+00

 Vector    3  Occ=2.000000D+00  E=-6.968086D-01

 Vector    4  Occ=2.000000D+00  E=-5.775367D-01

 Vector    5  Occ=2.000000D+00  E=-5.036049D-01

 Vector    6  Occ=0.000000D+00  E= 1.400161D-01

 Vector    7  Occ=0.000000D+00  E= 2.026489D-01

 Vector    8  Occ=0.000000D+00  E= 5.338569D-01

 Vector    9  Occ=0.000000D+00  E= 5.972498D-01

 Vector   10  Occ=0.000000D+00  E= 6.706443D-01

 Vector   11  Occ=0.000000D+00  E= 7.867381D-01

 Vector   12  Occ=0.000000D+00  E= 7.893672D-01

 Vector   13  Occ=0.000000D+00  E= 8.061064D-01

 Vector   14  Occ=0.000000D+00  E= 8.608373D-01

 Vector   15  Occ=0.000000D+00  E= 9.464851D-01

       Multipole analysis of the density wrt the origin
       ------------------------------------------------

     L   x y z        total         open         nuclear
     -   - - -        -----         ----         -------
     0   0 0 0     -0.000000      0.000000     10.000000

     1   1 0 0      0.635483      0.000000      0.000000
     1   0 1 0     -0.000000      0.000000      0.000000
     1   0 0 1      0.506846      0.000000      0.000000

     2   2 0 0     -3.944531      0.000000      2.907190
     2   1 1 0     -0.000000      0.000000      0.000000
     2   1 0 1     -0.659614      0.000000     -0.994484
     2   0 2 0     -5.452140      0.000000      0.000000
     2   0 1 1     -0.000000      0.000000      0.000000

 CCSD total energy / hartree       =       -76.337270358613850
 Total times  cpu:      655.0s     wall:      655.0s
