============================== echo of input deck ==============================
 echo
 start H2O
 title "H2O"

 memory total 24 gb

 geometry units angstrom
 symmetry c1
   zmatrix
     O
     H1 O 0.97551
     H2 O 0.97551 H1 102.95
   end
 end

 basis spherical
   * library cc-pVTZ
 end

 tce
   2eorb
   2emet 13
   ccsd
   maxiter 300
 end

# set tce:print_integrals T
# set tce:qorb 8
# set tce:qela 5
# set tce:qelb 5

 set tce:qducc T
 set tce:nactv 3
 set tce:nonhf T
 set tce:ducc_model 6

 set tce:printtol 0.02

 task tce
================================================================================

 Output coordinates in angstroms (scale by  1.889725989 to convert to a.u.)

  No.       Tag          Charge          X              Y              Z
 ---- ---------------- ---------- -------------- -------------- --------------
    1 O                    8.0000    -0.09506989     0.00000000    -0.07568976
    2 H1                   1.0000    -0.09506989     0.00000000     0.89982024
    3 H2                   1.0000     0.85562899     0.00000000    -0.29430220

         Total SCF energy =    -76.055217499054

 Vector    2  Occ=2.000000D+00  E=-1.337575D+00

 Vector    3  Occ=2.000000D+00  E=-6.969966D-01

 Vector    4  Occ=2.000000D+00  E=-5.773388D-01

 Vector    5  Occ=2.000000D+00  E=-5.035709D-01

 Vector    6  Occ=0.000000D+00  E= 1.400347D-01

 Vector    7  Occ=0.000000D+00  E= 2.026299D-01

 Vector    8  Occ=0.000000D+00  E= 5.340211D-01

 Vector    9  Occ=0.000000D+00  E= 5.969020D-01

 Vector   10  Occ=0.000000D+00  E= 6.707106D-01

 Vector   11  Occ=0.000000D+00  E= 7.867602D-01

 Vector   12  Occ=0.000000D+00  E= 7.898445D-01

 Vector   13  Occ=0.000000D+00  E= 8.060454D-01

 Vector   14  Occ=0.000000D+00  E= 8.606216D-01

 Vector   15  Occ=0.000000D+00  E= 9.468973D-01

       Multipole analysis of the density wrt the origin
       ------------------------------------------------

     L   x y z        total         open         nuclear
     -   - - -        -----         ----         -------
     0   0 0 0     -0.000000      0.000000     10.000000

     1   1 0 0      0.635438      0.000000     -0.000000
     1   0 1 0     -0.000000      0.000000      0.000000
     1   0 0 1      0.505903      0.000000      0.000000

     2   2 0 0     -3.945702      0.000000      2.904866
     2   1 1 0     -0.000000      0.000000      0.000000
     2   1 0 1     -0.662091      0.000000     -0.999158
     2   0 2 0     -5.452220      0.000000      0.000000
     2   0 1 1     -0.000000      0.000000      0.000000

 CCSD total energy / hartree       =       -76.337271861813548
 Total times  cpu:      660.9s     wall:      660.9s
