============================== echo of input deck ==============================
 echo
 start H2O
 title "H2O"

 memory total 24 gb

 geometry units angstrom
 symmetry c1
   zmatrix
     O
     H1 O 0.97551
     H2 O 0.97551 H1 102.50
   end
 end

 basis spherical
   * library cc-pVTZ
 end

 tce
   2eorb
   2emet 13
   ccsd
   maxiter 300
 end

# set tce:print_integrals T
# set tce:qorb 8
# set tce:qela 5
# set tce:qelb 5

 set tce:qducc T
 set tce:nactv 3
 set tce:nonhf T
 set tce:ducc_model 6

 set tce:printtol 0.02

 task tce
================================================================================

 Output coordinates in angstroms (scale by  1.889725989 to convert to a.u.)

  No.       Tag          Charge          X              Y              Z
 ---- ---------------- ---------- -------------- -------------- --------------
    1 O                    8.0000    -0.09523865     0.00000000    -0.07643710
    2 H1                   1.0000    -0.09523865     0.00000000     0.89907290
    3 H2                   1.0000     0.85714787     0.00000000    -0.28757611

         Total SCF energy =    -76.055168825300

 Vector    2  Occ=2.000000D+00  E=-1.337911D+00

 Vector    3  Occ=2.000000D+00  E=-6.961484D-01

 Vector    4  Occ=2.000000D+00  E=-5.782300D-01

 Vector    5  Occ=2.000000D+00  E=-5.037239D-01

 Vector    6  Occ=0.000000D+00  E= 1.399497D-01

 Vector    7  Occ=0.000000D+00  E= 2.027154D-01

 Vector    8  Occ=0.000000D+00  E= 5.332863D-01

 Vector    9  Occ=0.000000D+00  E= 5.984603D-01

 Vector   10  Occ=0.000000D+00  E= 6.704173D-01

 Vector   11  Occ=0.000000D+00  E= 7.866608D-01

 Vector   12  Occ=0.000000D+00  E= 7.877161D-01

 Vector   13  Occ=0.000000D+00  E= 8.063191D-01

 Vector   14  Occ=0.000000D+00  E= 8.615943D-01

 Vector   15  Occ=0.000000D+00  E= 9.450440D-01

       Multipole analysis of the density wrt the origin
       ------------------------------------------------

     L   x y z        total         open         nuclear
     -   - - -        -----         ----         -------
     0   0 0 0     -0.000000      0.000000     10.000000

     1   1 0 0      0.635628      0.000000      0.000000
     1   0 1 0     -0.000000      0.000000      0.000000
     1   0 0 1      0.510146      0.000000     -0.000000

     2   2 0 0     -3.940502      0.000000      2.915189
     2   1 1 0     -0.000000      0.000000      0.000000
     2   1 0 1     -0.650908      0.000000     -0.978056
     2   0 2 0     -5.451863      0.000000      0.000000
     2   0 1 1     -0.000000      0.000000      0.000000

 CCSD total energy / hartree       =       -76.337261097482866
 Total times  cpu:      651.9s     wall:      651.9s
