============================== echo of input deck ==============================
 echo
 start H2O
 title "H2O"

 memory total 24 gb

 geometry units angstrom
 symmetry c1
   zmatrix
     O
     H1 O 0.97551
     H2 O 0.97551 H1 102.10
   end
 end

 basis spherical
   * library cc-pVTZ
 end

 tce
   2eorb
   2emet 13
   ccsd
   maxiter 300
 end

# set tce:print_integrals T
# set tce:qorb 8
# set tce:qela 5
# set tce:qelb 5

 set tce:qducc T
 set tce:nactv 3
 set tce:nonhf T
 set tce:ducc_model 6

 set tce:printtol 0.02

 task tce
================================================================================

 Output coordinates in angstroms (scale by  1.889725989 to convert to a.u.)

  No.       Tag          Charge          X              Y              Z
 ---- ---------------- ---------- -------------- -------------- --------------
    1 O                    8.0000    -0.09538373     0.00000000    -0.07710250
    2 H1                   1.0000    -0.09538373     0.00000000     0.89840750
    3 H2                   1.0000     0.85845359     0.00000000    -0.28158750

         Total SCF energy =    -76.055116287363

 Vector    2  Occ=2.000000D+00  E=-1.338211D+00

 Vector    3  Occ=2.000000D+00  E=-6.953899D-01

 Vector    4  Occ=2.000000D+00  E=-5.790230D-01

 Vector    5  Occ=2.000000D+00  E=-5.038593D-01

 Vector    6  Occ=0.000000D+00  E= 1.398718D-01

 Vector    7  Occ=0.000000D+00  E= 2.027915D-01

 Vector    8  Occ=0.000000D+00  E= 5.326418D-01

 Vector    9  Occ=0.000000D+00  E= 5.998301D-01

 Vector   10  Occ=0.000000D+00  E= 6.701672D-01

 Vector   11  Occ=0.000000D+00  E= 7.858664D-01

 Vector   12  Occ=0.000000D+00  E= 7.865722D-01

 Vector   13  Occ=0.000000D+00  E= 8.065611D-01

 Vector   14  Occ=0.000000D+00  E= 8.624630D-01

 Vector   15  Occ=0.000000D+00  E= 9.434005D-01

       Multipole analysis of the density wrt the origin
       ------------------------------------------------

     L   x y z        total         open         nuclear
     -   - - -        -----         ----         -------
     0   0 0 0     -0.000000      0.000000     10.000000

     1   1 0 0      0.635770      0.000000      0.000000
     1   0 1 0     -0.000000      0.000000      0.000000
     1   0 0 1      0.513918      0.000000     -0.000000

     2   2 0 0     -3.936031      0.000000      2.924077
     2   1 1 0     -0.000000      0.000000      0.000000
     2   1 0 1     -0.640890      0.000000     -0.959147
     2   0 2 0     -5.451550      0.000000      0.000000
     2   0 1 1      0.000000      0.000000      0.000000

 CCSD total energy / hartree       =       -76.337242860547860
 Total times  cpu:      660.2s     wall:      660.2s
