============================== echo of input deck ==============================
 echo
 start H2O
 title "H2O"

 memory total 24 gb

 geometry units angstrom
 symmetry c1
   zmatrix
     O
     H1 O 0.97551
     H2 O 0.97551 H1 102.35
   end
 end

 basis spherical
   * library cc-pVTZ
 end

 tce
   2eorb
   2emet 13
   ccsd
   maxiter 300
 end

# set tce:print_integrals T
# set tce:qorb 8
# set tce:qela 5
# set tce:qelb 5

 set tce:qducc T
 set tce:nactv 3
 set tce:nonhf T
 set tce:ducc_model 6

 set tce:printtol 0.02

 task tce
================================================================================

 Output coordinates in angstroms (scale by  1.889725989 to convert to a.u.)

  No.       Tag          Charge          X              Y              Z
 ---- ---------------- ---------- -------------- -------------- --------------
    1 O                    8.0000    -0.09529360     0.00000000    -0.07668651
    2 H1                   1.0000    -0.09529360     0.00000000     0.89882349
    3 H2                   1.0000     0.85764241     0.00000000    -0.28533145

         Total SCF energy =    -76.055150149163

 Vector    2  Occ=2.000000D+00  E=-1.338023D+00

 Vector    3  Occ=2.000000D+00  E=-6.958644D-01

 Vector    4  Occ=2.000000D+00  E=-5.785273D-01

 Vector    5  Occ=2.000000D+00  E=-5.037748D-01

 Vector    6  Occ=0.000000D+00  E= 1.399208D-01

 Vector    7  Occ=0.000000D+00  E= 2.027439D-01

 Vector    8  Occ=0.000000D+00  E= 5.330437D-01

 Vector    9  Occ=0.000000D+00  E= 5.989757D-01

 Vector   10  Occ=0.000000D+00  E= 6.703223D-01

 Vector   11  Occ=0.000000D+00  E= 7.866276D-01

 Vector   12  Occ=0.000000D+00  E= 7.870177D-01

 Vector   13  Occ=0.000000D+00  E= 8.064100D-01

 Vector   14  Occ=0.000000D+00  E= 8.619196D-01

 Vector   15  Occ=0.000000D+00  E= 9.444273D-01

       Multipole analysis of the density wrt the origin
       ------------------------------------------------

     L   x y z        total         open         nuclear
     -   - - -        -----         ----         -------
     0   0 0 0     -0.000000      0.000000     10.000000

     1   1 0 0      0.635685      0.000000      0.000000
     1   0 1 0     -0.000000      0.000000      0.000000
     1   0 0 1      0.511560      0.000000      0.000000

     2   2 0 0     -3.938808      0.000000      2.918554
     2   1 1 0      0.000000      0.000000      0.000000
     2   1 0 1     -0.647160      0.000000     -0.970982
     2   0 2 0     -5.451745      0.000000      0.000000
     2   0 1 1      0.000000      0.000000      0.000000

 CCSD total energy / hartree       =       -76.337255217699749
 Total times  cpu:      660.7s     wall:      660.7s
