============================== echo of input deck ==============================
 echo
 start H2O
 title "H2O"

 memory total 24 gb

 geometry units angstrom
 symmetry c1
   zmatrix
     O
     H1 O 0.97551
     H2 O 0.97551 H1 103.95
   end
 end

 basis spherical
   * library cc-pVTZ
 end

 tce
   2eorb
   2emet 13
   ccsd
   maxiter 300
 end

# set tce:print_integrals T
# set tce:qorb 8
# set tce:qela 5
# set tce:qelb 5

 set tce:qducc T
 set tce:nactv 3
 set tce:nonhf T
 set tce:ducc_model 6

 set tce:printtol 0.02

 task tce
================================================================================

 Output coordinates in angstroms (scale by  1.889725989 to convert to a.u.)

  No.       Tag          Charge          X              Y              Z
 ---- ---------------- ---------- -------------- -------------- --------------
    1 O                    8.0000    -0.09467388     0.00000000    -0.07403389
    2 H1                   1.0000    -0.09467388     0.00000000     0.90147611
    3 H2                   1.0000     0.85206489     0.00000000    -0.30920502

         Total SCF energy =    -76.055286470442

 Vector    2  Occ=2.000000D+00  E=-1.336833D+00

 Vector    3  Occ=2.000000D+00  E=-6.988625D-01

 Vector    4  Occ=2.000000D+00  E=-5.753620D-01

 Vector    5  Occ=2.000000D+00  E=-5.032284D-01

 Vector    6  Occ=0.000000D+00  E= 1.402138D-01

 Vector    7  Occ=0.000000D+00  E= 2.024401D-01

 Vector    8  Occ=0.000000D+00  E= 5.356896D-01

 Vector    9  Occ=0.000000D+00  E= 5.933817D-01

 Vector   10  Occ=0.000000D+00  E= 6.714093D-01

 Vector   11  Occ=0.000000D+00  E= 7.869802D-01

 Vector   12  Occ=0.000000D+00  E= 7.947483D-01

 Vector   13  Occ=0.000000D+00  E= 8.054305D-01

 Vector   14  Occ=0.000000D+00  E= 8.584775D-01

 Vector   15  Occ=0.000000D+00  E= 9.510305D-01

       Multipole analysis of the density wrt the origin
       ------------------------------------------------

     L   x y z        total         open         nuclear
     -   - - -        -----         ----         -------
     0   0 0 0     -0.000000      0.000000     10.000000

     1   1 0 0      0.634894      0.000000      0.000000
     1   0 1 0     -0.000000      0.000000      0.000000
     1   0 0 1      0.496480      0.000000     -0.000000

     2   2 0 0     -3.957900      0.000000      2.880716
     2   1 1 0      0.000000      0.000000      0.000000
     2   1 0 1     -0.686599      0.000000     -1.045380
     2   0 2 0     -5.453032      0.000000      0.000000
     2   0 1 1     -0.000000      0.000000      0.000000

 CCSD total energy / hartree       =       -76.337259171544403
 Total times  cpu:      647.4s     wall:      647.4s
