============================== echo of input deck ==============================
 echo
 start H2O
 title "H2O"

 memory total 24 gb

 geometry units angstrom
 symmetry c1
   zmatrix
     O
     H1 O 0.97551
     H2 O 0.97551 H1 103.10
   end
 end

 basis spherical
   * library cc-pVTZ
 end

 tce
   2eorb
   2emet 13
   ccsd
   maxiter 300
 end

# set tce:print_integrals T
# set tce:qorb 8
# set tce:qela 5
# set tce:qelb 5

 set tce:qducc T
 set tce:nactv 3
 set tce:nonhf T
 set tce:ducc_model 6

 set tce:printtol 0.02

 task tce
================================================================================

 Output coordinates in angstroms (scale by  1.889725989 to convert to a.u.)

  No.       Tag          Charge          X              Y              Z
 ---- ---------------- ---------- -------------- -------------- --------------
    1 O                    8.0000    -0.09501233     0.00000000    -0.07544094
    2 H1                   1.0000    -0.09501233     0.00000000     0.90006906
    3 H2                   1.0000     0.85511097     0.00000000    -0.29654156

         Total SCF energy =    -76.055231280919

 Vector    2  Occ=2.000000D+00  E=-1.337463D+00

 Vector    3  Occ=2.000000D+00  E=-6.972782D-01

 Vector    4  Occ=2.000000D+00  E=-5.770419D-01

 Vector    5  Occ=2.000000D+00  E=-5.035197D-01

 Vector    6  Occ=0.000000D+00  E= 1.400624D-01

 Vector    7  Occ=0.000000D+00  E= 2.026014D-01

 Vector    8  Occ=0.000000D+00  E= 5.342682D-01

 Vector    9  Occ=0.000000D+00  E= 5.963788D-01

 Vector   10  Occ=0.000000D+00  E= 6.708112D-01

 Vector   11  Occ=0.000000D+00  E= 7.867933D-01

 Vector   12  Occ=0.000000D+00  E= 7.905649D-01

 Vector   13  Occ=0.000000D+00  E= 8.059538D-01

 Vector   14  Occ=0.000000D+00  E= 8.602984D-01

 Vector   15  Occ=0.000000D+00  E= 9.475160D-01

       Multipole analysis of the density wrt the origin
       ------------------------------------------------

     L   x y z        total         open         nuclear
     -   - - -        -----         ----         -------
     0   0 0 0     -0.000000      0.000000     10.000000

     1   1 0 0      0.635367      0.000000      0.000000
     1   0 1 0      0.000000      0.000000      0.000000
     1   0 0 1      0.504489      0.000000      0.000000

     2   2 0 0     -3.947475      0.000000      2.901350
     2   1 1 0      0.000000      0.000000      0.000000
     2   1 0 1     -0.665798      0.000000     -1.006151
     2   0 2 0     -5.452340      0.000000      0.000000
     2   0 1 1     -0.000000      0.000000      0.000000

 CCSD total energy / hartree       =       -76.337273167268236
 Total times  cpu:      655.8s     wall:      655.8s
