============================== echo of input deck ==============================
 echo
 start H2O
 title "H2O"

 memory total 24 gb

 geometry units angstrom
 symmetry c1
   zmatrix
     O
     H1 O 0.97551
     H2 O 0.97551 H1 103.20
   end
 end

 basis spherical
   * library cc-pVTZ
 end

 tce
   2eorb
   2emet 13
   ccsd
   maxiter 300
 end

# set tce:print_integrals T
# set tce:qorb 8
# set tce:qela 5
# set tce:qelb 5

 set tce:qducc T
 set tce:nactv 3
 set tce:nonhf T
 set tce:ducc_model 6

 set tce:printtol 0.02

 task tce
================================================================================

 Output coordinates in angstroms (scale by  1.889725989 to convert to a.u.)

  No.       Tag          Charge          X              Y              Z
 ---- ---------------- ---------- -------------- -------------- --------------
    1 O                    8.0000    -0.09497360     0.00000000    -0.07527514
    2 H1                   1.0000    -0.09497360     0.00000000     0.90023486
    3 H2                   1.0000     0.85476236     0.00000000    -0.29803370

         Total SCF energy =    -76.055239792575

 Vector    2  Occ=2.000000D+00  E=-1.337389D+00

 Vector    3  Occ=2.000000D+00  E=-6.974656D-01

 Vector    4  Occ=2.000000D+00  E=-5.768441D-01

 Vector    5  Occ=2.000000D+00  E=-5.034856D-01

 Vector    6  Occ=0.000000D+00  E= 1.400807D-01

 Vector    7  Occ=0.000000D+00  E= 2.025824D-01

 Vector    8  Occ=0.000000D+00  E= 5.344336D-01

 Vector    9  Occ=0.000000D+00  E= 5.960290D-01

 Vector   10  Occ=0.000000D+00  E= 6.708791D-01

 Vector   11  Occ=0.000000D+00  E= 7.868153D-01

 Vector   12  Occ=0.000000D+00  E= 7.910482D-01

 Vector   13  Occ=0.000000D+00  E= 8.058926D-01

 Vector   14  Occ=0.000000D+00  E= 8.600833D-01

 Vector   15  Occ=0.000000D+00  E= 9.479288D-01

       Multipole analysis of the density wrt the origin
       ------------------------------------------------

     L   x y z        total         open         nuclear
     -   - - -        -----         ----         -------
     0   0 0 0     -0.000000      0.000000     10.000000

     1   1 0 0      0.635317      0.000000      0.000000
     1   0 1 0      0.000000      0.000000      0.000000
     1   0 0 1      0.503546      0.000000      0.000000

     2   2 0 0     -3.948669      0.000000      2.898985
     2   1 1 0      0.000000      0.000000      0.000000
     2   1 0 1     -0.668263      0.000000     -1.010802
     2   0 2 0     -5.452421      0.000000      0.000000
     2   0 1 1      0.000000      0.000000      0.000000

 CCSD total energy / hartree       =       -76.337273405823638
 Total times  cpu:      627.7s     wall:      627.7s
