============================== echo of input deck ==============================
 echo
 start H2O
 title "H2O"

 memory total 24 gb

 geometry units angstrom
 symmetry c1
   zmatrix
     O
     H1 O 0.97551
     H2 O 0.97551 H1 103.70
   end
 end

 basis spherical
   * library cc-pVTZ
 end

 tce
   2eorb
   2emet 13
   ccsd
   maxiter 300
 end

# set tce:print_integrals T
# set tce:qorb 8
# set tce:qela 5
# set tce:qelb 5

 set tce:qducc T
 set tce:nactv 3
 set tce:nonhf T
 set tce:ducc_model 6

 set tce:printtol 0.02

 task tce
================================================================================

 Output coordinates in angstroms (scale by  1.889725989 to convert to a.u.)

  No.       Tag          Charge          X              Y              Z
 ---- ---------------- ---------- -------------- -------------- --------------
    1 O                    8.0000    -0.09477559     0.00000000    -0.07444720
    2 H1                   1.0000    -0.09477559     0.00000000     0.90106280
    3 H2                   1.0000     0.85298029     0.00000000    -0.30548518

         Total SCF energy =    -76.055274265794

 Vector    2  Occ=2.000000D+00  E=-1.337018D+00

 Vector    3  Occ=2.000000D+00  E=-6.983985D-01

 Vector    4  Occ=2.000000D+00  E=-5.758557D-01

 Vector    5  Occ=2.000000D+00  E=-5.033143D-01

 Vector    6  Occ=0.000000D+00  E= 1.401703D-01

 Vector    7  Occ=0.000000D+00  E= 2.024875D-01

 Vector    8  Occ=0.000000D+00  E= 5.352678D-01

 Vector    9  Occ=0.000000D+00  E= 5.942686D-01

 Vector   10  Occ=0.000000D+00  E= 6.712284D-01

 Vector   11  Occ=0.000000D+00  E= 7.869253D-01

 Vector   12  Occ=0.000000D+00  E= 7.935003D-01

 Vector   13  Occ=0.000000D+00  E= 8.055852D-01

 Vector   14  Occ=0.000000D+00  E= 8.590113D-01

 Vector   15  Occ=0.000000D+00  E= 9.499954D-01

       Multipole analysis of the density wrt the origin
       ------------------------------------------------

     L   x y z        total         open         nuclear
     -   - - -        -----         ----         -------
     0   0 0 0     -0.000000      0.000000     10.000000

     1   1 0 0      0.635045      0.000000      0.000000
     1   0 1 0      0.000000      0.000000      0.000000
     1   0 0 1      0.498835      0.000000      0.000000

     2   2 0 0     -3.954768      0.000000      2.886909
     2   1 1 0     -0.000000      0.000000      0.000000
     2   1 0 1     -0.680518      0.000000     -1.033914
     2   0 2 0     -5.452827      0.000000      0.000000
     2   0 1 1     -0.000000      0.000000      0.000000

 CCSD total energy / hartree       =       -76.337267048046598
 Total times  cpu:      662.9s     wall:      662.9s
