============================== echo of input deck ==============================
 echo
 start H2O
 title "H2O"

 memory total 24 gb

 geometry units angstrom
 symmetry c1
   zmatrix
     O
     H1 O 0.97551
     H2 O 0.97551 H1 104.35
   end
 end

 basis spherical
   * library cc-pVTZ
 end

 tce
   2eorb
   2emet 13
   ccsd
   maxiter 300
 end

# set tce:print_integrals T
# set tce:qorb 8
# set tce:qela 5
# set tce:qelb 5

 set tce:qducc T
 set tce:nactv 3
 set tce:nonhf T
 set tce:ducc_model 6

 set tce:printtol 0.02

 task tce
================================================================================

 Output coordinates in angstroms (scale by  1.889725989 to convert to a.u.)

  No.       Tag          Charge          X              Y              Z
 ---- ---------------- ---------- -------------- -------------- --------------
    1 O                    8.0000    -0.09450739     0.00000000    -0.07337352
    2 H1                   1.0000    -0.09450739     0.00000000     0.90213648
    3 H2                   1.0000     0.85056652     0.00000000    -0.31514835

         Total SCF energy =    -76.055299060411

 Vector    2  Occ=2.000000D+00  E=-1.336537D+00

 Vector    3  Occ=2.000000D+00  E=-6.996014D-01

 Vector    4  Occ=2.000000D+00  E=-5.745728D-01

 Vector    5  Occ=2.000000D+00  E=-5.030904D-01

 Vector    6  Occ=0.000000D+00  E= 1.402817D-01

 Vector    7  Occ=0.000000D+00  E= 2.023643D-01

 Vector    8  Occ=0.000000D+00  E= 5.363707D-01

 Vector    9  Occ=0.000000D+00  E= 5.919543D-01

 Vector   10  Occ=0.000000D+00  E= 6.717076D-01

 Vector   11  Occ=0.000000D+00  E= 7.870680D-01

 Vector   12  Occ=0.000000D+00  E= 7.967749D-01

 Vector   13  Occ=0.000000D+00  E= 8.051817D-01

 Vector   14  Occ=0.000000D+00  E= 8.576267D-01

 Vector   15  Occ=0.000000D+00  E= 9.526890D-01

       Multipole analysis of the density wrt the origin
       ------------------------------------------------

     L   x y z        total         open         nuclear
     -   - - -        -----         ----         -------
     0   0 0 0     -0.000000      0.000000     10.000000

     1   1 0 0      0.634629      0.000000      0.000000
     1   0 1 0      0.000000      0.000000      0.000000
     1   0 0 1      0.492713      0.000000      0.000000

     2   2 0 0     -3.963025      0.000000      2.870594
     2   1 1 0     -0.000000      0.000000      0.000000
     2   1 0 1     -0.696264      0.000000     -1.063600
     2   0 2 0     -5.453364      0.000000      0.000000
     2   0 1 1     -0.000000      0.000000      0.000000

 CCSD total energy / hartree       =       -76.337240095701674
 Total times  cpu:      849.4s     wall:      849.4s
