============================== echo of input deck ==============================
 echo
 start H2O
 title "H2O"

 memory total 24 gb

 geometry units angstrom
 symmetry c1
   zmatrix
     O
     H1 O 0.97551
     H2 O 0.97551 H1 104.90
   end
 end

 basis spherical
   * library cc-pVTZ
 end

 tce
   2eorb
   2emet 13
   ccsd
   maxiter 300
 end

# set tce:print_integrals T
# set tce:qorb 8
# set tce:qela 5
# set tce:qelb 5

 set tce:qducc T
 set tce:nactv 3
 set tce:nonhf T
 set tce:ducc_model 6

 set tce:printtol 0.02

 task tce
================================================================================

 Output coordinates in angstroms (scale by  1.889725989 to convert to a.u.)

  No.       Tag          Charge          X              Y              Z
 ---- ---------------- ---------- -------------- -------------- --------------
    1 O                    8.0000    -0.09427095     0.00000000    -0.07246744
    2 H1                   1.0000    -0.09427095     0.00000000     0.90304256
    3 H2                   1.0000     0.84843858     0.00000000    -0.32330305

         Total SCF energy =    -76.055302515265

 Vector    2  Occ=2.000000D+00  E=-1.336133D+00

 Vector    3  Occ=2.000000D+00  E=-7.006103D-01

 Vector    4  Occ=2.000000D+00  E=-5.734890D-01

 Vector    5  Occ=2.000000D+00  E=-5.028998D-01

 Vector    6  Occ=0.000000D+00  E= 1.403714D-01

 Vector    7  Occ=0.000000D+00  E= 2.022601D-01

 Vector    8  Occ=0.000000D+00  E= 5.373198D-01

 Vector    9  Occ=0.000000D+00  E= 5.899763D-01

 Vector   10  Occ=0.000000D+00  E= 6.721360D-01

 Vector   11  Occ=0.000000D+00  E= 7.871885D-01

 Vector   12  Occ=0.000000D+00  E= 7.996199D-01

 Vector   13  Occ=0.000000D+00  E= 8.048364D-01

 Vector   14  Occ=0.000000D+00  E= 8.564632D-01

 Vector   15  Occ=0.000000D+00  E= 9.549735D-01

       Multipole analysis of the density wrt the origin
       ------------------------------------------------

     L   x y z        total         open         nuclear
     -   - - -        -----         ----         -------
     0   0 0 0      0.000000      0.000000     10.000000

     1   1 0 0      0.634222      0.000000      0.000000
     1   0 1 0      0.000000      0.000000      0.000000
     1   0 0 1      0.487535      0.000000      0.000000

     2   2 0 0     -3.970299      0.000000      2.856248
     2   1 1 0     -0.000000      0.000000      0.000000
     2   1 0 1     -0.709421      0.000000     -1.088392
     2   0 2 0     -5.453828      0.000000      0.000000
     2   0 1 1     -0.000000      0.000000      0.000000

 CCSD total energy / hartree       =       -76.337200943118631
 Total times  cpu:      646.3s     wall:      646.3s
