============================== echo of input deck ==============================
 echo
 start H2O
 title "H2O"

 memory total 24 gb

 geometry units angstrom
 symmetry c1
   zmatrix
     O
     H1 O 0.97551
     H2 O 0.97551 H1 104.10
   end
 end

 basis spherical
   * library cc-pVTZ
 end

 tce
   2eorb
   2emet 13
   ccsd
   maxiter 300
 end

# set tce:print_integrals T
# set tce:qorb 8
# set tce:qela 5
# set tce:qelb 5

 set tce:qducc T
 set tce:nactv 3
 set tce:nonhf T
 set tce:ducc_model 6

 set tce:printtol 0.02

 task tce
================================================================================

 Output coordinates in angstroms (scale by  1.889725989 to convert to a.u.)

  No.       Tag          Charge          X              Y              Z
 ---- ---------------- ---------- -------------- -------------- --------------
    1 O                    8.0000    -0.09461198     0.00000000    -0.07378611
    2 H1                   1.0000    -0.09461198     0.00000000     0.90172389
    3 H2                   1.0000     0.85150786     0.00000000    -0.31143499

         Total SCF energy =    -76.055292190238

 Vector    2  Occ=2.000000D+00  E=-1.336722D+00

 Vector    3  Occ=2.000000D+00  E=-6.991401D-01

 Vector    4  Occ=2.000000D+00  E=-5.750660D-01

 Vector    5  Occ=2.000000D+00  E=-5.031767D-01

 Vector    6  Occ=0.000000D+00  E= 1.402395D-01

 Vector    7  Occ=0.000000D+00  E= 2.024117D-01

 Vector    8  Occ=0.000000D+00  E= 5.359441D-01

 Vector    9  Occ=0.000000D+00  E= 5.928476D-01

 Vector   10  Occ=0.000000D+00  E= 6.715198D-01

 Vector   11  Occ=0.000000D+00  E= 7.870132D-01

 Vector   12  Occ=0.000000D+00  E= 7.955040D-01

 Vector   13  Occ=0.000000D+00  E= 8.053374D-01

 Vector   14  Occ=0.000000D+00  E= 8.581580D-01

 Vector   15  Occ=0.000000D+00  E= 9.516521D-01

       Multipole analysis of the density wrt the origin
       ------------------------------------------------

     L   x y z        total         open         nuclear
     -   - - -        -----         ----         -------
     0   0 0 0     -0.000000      0.000000     10.000000

     1   1 0 0      0.634798      0.000000      0.000000
     1   0 1 0      0.000000      0.000000      0.000000
     1   0 0 1      0.495067      0.000000      0.000000

     2   2 0 0     -3.959806      0.000000      2.876951
     2   1 1 0     -0.000000      0.000000      0.000000
     2   1 0 1     -0.690233      0.000000     -1.052231
     2   0 2 0     -5.453156      0.000000      0.000000
     2   0 1 1      0.000000      0.000000      0.000000

 CCSD total energy / hartree       =       -76.337252949718106
 Total times  cpu:      649.7s     wall:      649.7s
