============================== echo of input deck ==============================
 echo
 start H2O
 title "H2O"

 memory total 24 gb

 geometry units angstrom
 symmetry c1
   zmatrix
     O
     H1 O 0.97551
     H2 O 0.97551 H1 104.40
   end
 end

 basis spherical
   * library cc-pVTZ
 end

 tce
   2eorb
   2emet 13
   ccsd
   maxiter 300
 end

# set tce:print_integrals T
# set tce:qorb 8
# set tce:qela 5
# set tce:qelb 5

 set tce:qducc T
 set tce:nactv 3
 set tce:nonhf T
 set tce:ducc_model 6

 set tce:printtol 0.02

 task tce
================================================================================

 Output coordinates in angstroms (scale by  1.889725989 to convert to a.u.)

  No.       Tag          Charge          X              Y              Z
 ---- ---------------- ---------- -------------- -------------- --------------
    1 O                    8.0000    -0.09448626     0.00000000    -0.07329105
    2 H1                   1.0000    -0.09448626     0.00000000     0.90221895
    3 H2                   1.0000     0.85037630     0.00000000    -0.31589052

         Total SCF energy =    -76.055300035924

 Vector    2  Occ=2.000000D+00  E=-1.336501D+00

 Vector    3  Occ=2.000000D+00  E=-6.996934D-01

 Vector    4  Occ=2.000000D+00  E=-5.744742D-01

 Vector    5  Occ=2.000000D+00  E=-5.030731D-01

 Vector    6  Occ=0.000000D+00  E= 1.402900D-01

 Vector    7  Occ=0.000000D+00  E= 2.023548D-01

 Vector    8  Occ=0.000000D+00  E= 5.364564D-01

 Vector    9  Occ=0.000000D+00  E= 5.917752D-01

 Vector   10  Occ=0.000000D+00  E= 6.717456D-01

 Vector   11  Occ=0.000000D+00  E= 7.870790D-01

 Vector   12  Occ=0.000000D+00  E= 7.970307D-01

 Vector   13  Occ=0.000000D+00  E= 8.051504D-01

 Vector   14  Occ=0.000000D+00  E= 8.575206D-01

 Vector   15  Occ=0.000000D+00  E= 9.528964D-01

       Multipole analysis of the density wrt the origin
       ------------------------------------------------

     L   x y z        total         open         nuclear
     -   - - -        -----         ----         -------
     0   0 0 0     -0.000000      0.000000     10.000000

     1   1 0 0      0.634594      0.000000      0.000000
     1   0 1 0      0.000000      0.000000      0.000000
     1   0 0 1      0.492242      0.000000      0.000000

     2   2 0 0     -3.963676      0.000000      2.869310
     2   1 1 0     -0.000000      0.000000      0.000000
     2   1 0 1     -0.697467      0.000000     -1.065867
     2   0 2 0     -5.453406      0.000000      0.000000
     2   0 1 1     -0.000000      0.000000      0.000000

 CCSD total energy / hartree       =       -76.337237153161354
 Total times  cpu:      650.1s     wall:      650.1s
