============================== echo of input deck ==============================
 echo
 start H2O
 title "H2O"

 memory total 24 gb

 geometry units angstrom
 symmetry c1
   zmatrix
     O
     H1 O 0.97551
     H2 O 0.97551 H1 104.65
   end
 end

 basis spherical
   * library cc-pVTZ
 end

 tce
   2eorb
   2emet 13
   ccsd
   maxiter 300
 end

# set tce:print_integrals T
# set tce:qorb 8
# set tce:qela 5
# set tce:qelb 5

 set tce:qducc T
 set tce:nactv 3
 set tce:nonhf T
 set tce:ducc_model 6

 set tce:printtol 0.02

 task tce
================================================================================

 Output coordinates in angstroms (scale by  1.889725989 to convert to a.u.)

  No.       Tag          Charge          X              Y              Z
 ---- ---------------- ---------- -------------- -------------- --------------
    1 O                    8.0000    -0.09437950     0.00000000    -0.07287901
    2 H1                   1.0000    -0.09437950     0.00000000     0.90263099
    3 H2                   1.0000     0.84941553     0.00000000    -0.31959890

         Total SCF energy =    -76.055302926621

 Vector    2  Occ=2.000000D+00  E=-1.336317D+00

 Vector    3  Occ=2.000000D+00  E=-7.001527D-01

 Vector    4  Occ=2.000000D+00  E=-5.739814D-01

 Vector    5  Occ=2.000000D+00  E=-5.029865D-01

 Vector    6  Occ=0.000000D+00  E= 1.403311D-01

 Vector    7  Occ=0.000000D+00  E= 2.023074D-01

 Vector    8  Occ=0.000000D+00  E= 5.368866D-01

 Vector    9  Occ=0.000000D+00  E= 5.908775D-01

 Vector   10  Occ=0.000000D+00  E= 6.719386D-01

 Vector   11  Occ=0.000000D+00  E= 7.871337D-01

 Vector   12  Occ=0.000000D+00  E= 7.983184D-01

 Vector   13  Occ=0.000000D+00  E= 8.049938D-01

 Vector   14  Occ=0.000000D+00  E= 8.569912D-01

 Vector   15  Occ=0.000000D+00  E= 9.539345D-01

       Multipole analysis of the density wrt the origin
       ------------------------------------------------

     L   x y z        total         open         nuclear
     -   - - -        -----         ----         -------
     0   0 0 0     -0.000000      0.000000     10.000000

     1   1 0 0      0.634413      0.000000      0.000000
     1   0 1 0      0.000000      0.000000      0.000000
     1   0 0 1      0.489888      0.000000      0.000000

     2   2 0 0     -3.966960      0.000000      2.862830
     2   1 1 0     -0.000000      0.000000      0.000000
     2   1 0 1     -0.703460      0.000000     -1.077161
     2   0 2 0     -5.453616      0.000000      0.000000
     2   0 1 1     -0.000000      0.000000      0.000000

 CCSD total energy / hartree       =       -76.337220587530538
 Total times  cpu:      701.7s     wall:      701.7s
