============================== echo of input deck ==============================
 echo
 start H2O
 title "H2O"

 memory total 24 gb

 geometry units angstrom
 symmetry c1
   zmatrix
     O
     H1 O 0.97551
     H2 O 0.97551 H1 105.30
   end
 end

 basis spherical
   * library cc-pVTZ
 end

 tce
   2eorb
   2emet 13
   ccsd
   maxiter 300
 end

# set tce:print_integrals T
# set tce:qorb 8
# set tce:qela 5
# set tce:qelb 5

 set tce:qducc T
 set tce:nactv 3
 set tce:nonhf T
 set tce:ducc_model 6

 set tce:printtol 0.02

 task tce
================================================================================

 Output coordinates in angstroms (scale by  1.889725989 to convert to a.u.)

  No.       Tag          Charge          X              Y              Z
 ---- ---------------- ---------- -------------- -------------- --------------
    1 O                    8.0000    -0.09409354     0.00000000    -0.07180992
    2 H1                   1.0000    -0.09409354     0.00000000     0.90370008
    3 H2                   1.0000     0.84684187     0.00000000    -0.32922072

         Total SCF energy =    -76.055295021008

 Vector    2  Occ=2.000000D+00  E=-1.335840D+00

 Vector    3  Occ=2.000000D+00  E=-7.013389D-01

 Vector    4  Occ=2.000000D+00  E=-5.727018D-01

 Vector    5  Occ=2.000000D+00  E=-5.027605D-01

 Vector    6  Occ=0.000000D+00  E= 1.404342D-01

 Vector    7  Occ=0.000000D+00  E= 2.021844D-01

 Vector    8  Occ=0.000000D+00  E= 5.380193D-01

 Vector    9  Occ=0.000000D+00  E= 5.885277D-01

 Vector   10  Occ=0.000000D+00  E= 6.724611D-01

 Vector   11  Occ=0.000000D+00  E= 7.872760D-01

 Vector   12  Occ=0.000000D+00  E= 8.017305D-01

 Vector   13  Occ=0.000000D+00  E= 8.045829D-01

 Vector   14  Occ=0.000000D+00  E= 8.556216D-01

 Vector   15  Occ=0.000000D+00  E= 9.566378D-01

       Multipole analysis of the density wrt the origin
       ------------------------------------------------

     L   x y z        total         open         nuclear
     -   - - -        -----         ----         -------
     0   0 0 0     -0.000000      0.000000     10.000000

     1   1 0 0      0.633893      0.000000      0.000000
     1   0 1 0     -0.000000      0.000000      0.000000
     1   0 0 1      0.483772      0.000000      0.000000

     2   2 0 0     -3.975753      0.000000      2.845508
     2   1 1 0      0.000000      0.000000      0.000000
     2   1 0 1     -0.718890      0.000000     -1.106228
     2   0 2 0     -5.454170      0.000000      0.000000
     2   0 1 1      0.000000      0.000000      0.000000

 CCSD total energy / hartree       =       -76.337163140418923
 Total times  cpu:      660.7s     wall:      660.7s
