============================== echo of input deck ==============================
 echo
 start H2O
 title "H2O"

 memory total 24 gb

 geometry units angstrom
 symmetry c1
   zmatrix
     O
     H1 O 0.97551
     H2 O 0.97551 H1 105.15
   end
 end

 basis spherical
   * library cc-pVTZ
 end

 tce
   2eorb
   2emet 13
   ccsd
   maxiter 300
 end

# set tce:print_integrals T
# set tce:qorb 8
# set tce:qela 5
# set tce:qelb 5

 set tce:qducc T
 set tce:nactv 3
 set tce:nonhf T
 set tce:ducc_model 6

 set tce:printtol 0.02

 task tce
================================================================================

 Output coordinates in angstroms (scale by  1.889725989 to convert to a.u.)

  No.       Tag          Charge          X              Y              Z
 ---- ---------------- ---------- -------------- -------------- --------------
    1 O                    8.0000    -0.09416061     0.00000000    -0.07205634
    2 H1                   1.0000    -0.09416061     0.00000000     0.90345366
    3 H2                   1.0000     0.84744547     0.00000000    -0.32700290

         Total SCF energy =    -76.055298814656

 Vector    2  Occ=2.000000D+00  E=-1.335950D+00

 Vector    3  Occ=2.000000D+00  E=-7.010662D-01

 Vector    4  Occ=2.000000D+00  E=-5.729969D-01

 Vector    5  Occ=2.000000D+00  E=-5.028128D-01

 Vector    6  Occ=0.000000D+00  E= 1.404109D-01

 Vector    7  Occ=0.000000D+00  E= 2.022128D-01

 Vector    8  Occ=0.000000D+00  E= 5.377561D-01

 Vector    9  Occ=0.000000D+00  E= 5.890718D-01

 Vector   10  Occ=0.000000D+00  E= 6.723378D-01

 Vector   11  Occ=0.000000D+00  E= 7.872432D-01

 Vector   12  Occ=0.000000D+00  E= 8.009350D-01

 Vector   13  Occ=0.000000D+00  E= 8.046782D-01

 Vector   14  Occ=0.000000D+00  E= 8.559367D-01

 Vector   15  Occ=0.000000D+00  E= 9.560134D-01

       Multipole analysis of the density wrt the origin
       ------------------------------------------------

     L   x y z        total         open         nuclear
     -   - - -        -----         ----         -------
     0   0 0 0     -0.000000      0.000000     10.000000

     1   1 0 0      0.634020      0.000000      0.000000
     1   0 1 0      0.000000      0.000000      0.000000
     1   0 0 1      0.485183      0.000000      0.000000

     2   2 0 0     -3.973692      0.000000      2.849566
     2   1 1 0     -0.000000      0.000000      0.000000
     2   1 0 1     -0.715349      0.000000     -1.099559
     2   0 2 0     -5.454041      0.000000      0.000000
     2   0 1 1     -0.000000      0.000000      0.000000

 CCSD total energy / hartree       =       -76.337178232744421
 Total times  cpu:      652.7s     wall:      652.7s
