============================== echo of input deck ==============================
 echo
 start H2O
 title "H2O"

 memory total 24 gb

 geometry units angstrom
 symmetry c1
   zmatrix
     O
     H1 O 0.97551
     H2 O 0.97551 H1 105.45
   end
 end

 basis spherical
   * library cc-pVTZ
 end

 tce
   2eorb
   2emet 13
   ccsd
   maxiter 300
 end

# set tce:print_integrals T
# set tce:qorb 8
# set tce:qela 5
# set tce:qelb 5

 set tce:qducc T
 set tce:nactv 3
 set tce:nonhf T
 set tce:ducc_model 6

 set tce:printtol 0.02

 task tce
================================================================================

 Output coordinates in angstroms (scale by  1.889725989 to convert to a.u.)

  No.       Tag          Charge          X              Y              Z
 ---- ---------------- ---------- -------------- -------------- --------------
    1 O                    8.0000    -0.09402583     0.00000000    -0.07156367
    2 H1                   1.0000    -0.09402583     0.00000000     0.90394633
    3 H2                   1.0000     0.84623246     0.00000000    -0.33143695

         Total SCF energy =    -76.055290050794

 Vector    2  Occ=2.000000D+00  E=-1.335730D+00

 Vector    3  Occ=2.000000D+00  E=-7.016110D-01

 Vector    4  Occ=2.000000D+00  E=-5.724068D-01

 Vector    5  Occ=2.000000D+00  E=-5.027081D-01

 Vector    6  Occ=0.000000D+00  E= 1.404572D-01

 Vector    7  Occ=0.000000D+00  E= 2.021560D-01

 Vector    8  Occ=0.000000D+00  E= 5.382835D-01

 Vector    9  Occ=0.000000D+00  E= 5.879825D-01

 Vector   10  Occ=0.000000D+00  E= 6.725860D-01

 Vector   11  Occ=0.000000D+00  E= 7.873088D-01

 Vector   12  Occ=0.000000D+00  E= 8.025308D-01

 Vector   13  Occ=0.000000D+00  E= 8.044873D-01

 Vector   14  Occ=0.000000D+00  E= 8.553070D-01

 Vector   15  Occ=0.000000D+00  E= 9.572624D-01

       Multipole analysis of the density wrt the origin
       ------------------------------------------------

     L   x y z        total         open         nuclear
     -   - - -        -----         ----         -------
     0   0 0 0     -0.000000      0.000000     10.000000

     1   1 0 0      0.633763      0.000000      0.000000
     1   0 1 0     -0.000000      0.000000      0.000000
     1   0 0 1      0.482361      0.000000      0.000000

     2   2 0 0     -3.977834      0.000000      2.841414
     2   1 1 0     -0.000000      0.000000      0.000000
     2   1 0 1     -0.722419      0.000000     -1.112873
     2   0 2 0     -5.454299      0.000000      0.000000
     2   0 1 1     -0.000000      0.000000      0.000000

 CCSD total energy / hartree       =       -76.337146951906021
 Total times  cpu:      779.2s     wall:      779.2s
