============================== echo of input deck ==============================
 echo
 start H2O
 title "H2O"

 memory total 24 gb

 geometry units angstrom
 symmetry c1
   zmatrix
     O
     H1 O 0.97551
     H2 O 0.97551 H1 106.50
   end
 end

 basis spherical
   * library cc-pVTZ
 end

 tce
   2eorb
   2emet 13
   ccsd
   maxiter 300
 end

# set tce:print_integrals T
# set tce:qorb 8
# set tce:qela 5
# set tce:qelb 5

 set tce:qducc T
 set tce:nactv 3
 set tce:nonhf T
 set tce:ducc_model 6

 set tce:printtol 0.02

 task tce
================================================================================

 Output coordinates in angstroms (scale by  1.889725989 to convert to a.u.)

  No.       Tag          Charge          X              Y              Z
 ---- ---------------- ---------- -------------- -------------- --------------
    1 O                    8.0000    -0.09353382     0.00000000    -0.06984502
    2 H1                   1.0000    -0.09353382     0.00000000     0.90566498
    3 H2                   1.0000     0.84180442     0.00000000    -0.34690483

         Total SCF energy =    -76.055222556043

 Vector    2  Occ=2.000000D+00  E=-1.334966D+00

 Vector    3  Occ=2.000000D+00  E=-7.034987D-01

 Vector    4  Occ=2.000000D+00  E=-5.703453D-01

 Vector    5  Occ=2.000000D+00  E=-5.023391D-01

 Vector    6  Occ=0.000000D+00  E= 1.406097D-01

 Vector    7  Occ=0.000000D+00  E= 2.019576D-01

 Vector    8  Occ=0.000000D+00  E= 5.401631D-01

 Vector    9  Occ=0.000000D+00  E= 5.841406D-01

 Vector   10  Occ=0.000000D+00  E= 6.735076D-01

 Vector   11  Occ=0.000000D+00  E= 7.875381D-01

 Vector   12  Occ=0.000000D+00  E= 8.038089D-01

 Vector   13  Occ=0.000000D+00  E= 8.082637D-01

 Vector   14  Occ=0.000000D+00  E= 8.531203D-01

 Vector   15  Occ=0.000000D+00  E= 9.616423D-01

       Multipole analysis of the density wrt the origin
       ------------------------------------------------

     L   x y z        total         open         nuclear
     -   - - -        -----         ----         -------
     0   0 0 0     -0.000000      0.000000     10.000000

     1   1 0 0      0.632744      0.000000      0.000000
     1   0 1 0     -0.000000      0.000000      0.000000
     1   0 0 1      0.472492      0.000000      0.000000

     2   2 0 0     -3.992933      0.000000      2.811756
     2   1 1 0     -0.000000      0.000000      0.000000
     2   1 0 1     -0.746775      0.000000     -1.158715
     2   0 2 0     -5.455219      0.000000      0.000000
     2   0 1 1     -0.000000      0.000000      0.000000

 CCSD total energy / hartree       =       -76.337003178588972
 Total times  cpu:      633.9s     wall:      633.9s
