============================== echo of input deck ==============================
 echo
 start H2O
 title "H2O"

 memory total 24 gb

 geometry units angstrom
 symmetry c1
   zmatrix
     O
     H1 O 0.97551
     H2 O 0.97551 H1 106.80
   end
 end

 basis spherical
   * library cc-pVTZ
 end

 tce
   2eorb
   2emet 13
   ccsd
   maxiter 300
 end

# set tce:print_integrals T
# set tce:qorb 8
# set tce:qela 5
# set tce:qelb 5

 set tce:qducc T
 set tce:nactv 3
 set tce:nonhf T
 set tce:ducc_model 6

 set tce:printtol 0.02

 task tce
================================================================================

 Output coordinates in angstroms (scale by  1.889725989 to convert to a.u.)

  No.       Tag          Charge          X              Y              Z
 ---- ---------------- ---------- -------------- -------------- --------------
    1 O                    8.0000    -0.09338747     0.00000000    -0.06935566
    2 H1                   1.0000    -0.09338747     0.00000000     0.90615434
    3 H2                   1.0000     0.84048727     0.00000000    -0.35130907

         Total SCF energy =    -76.055192846895

 Vector    2  Occ=2.000000D+00  E=-1.334749D+00

 Vector    3  Occ=2.000000D+00  E=-7.040325D-01

 Vector    4  Occ=2.000000D+00  E=-5.697575D-01

 Vector    5  Occ=2.000000D+00  E=-5.022330D-01

 Vector    6  Occ=0.000000D+00  E= 1.406506D-01

 Vector    7  Occ=0.000000D+00  E= 2.019009D-01

 Vector    8  Occ=0.000000D+00  E= 5.407096D-01

 Vector    9  Occ=0.000000D+00  E= 5.830359D-01

 Vector   10  Occ=0.000000D+00  E= 6.737864D-01

 Vector   11  Occ=0.000000D+00  E= 7.876035D-01

 Vector   12  Occ=0.000000D+00  E= 8.036119D-01

 Vector   13  Occ=0.000000D+00  E= 8.099424D-01

 Vector   14  Occ=0.000000D+00  E= 8.525005D-01

 Vector   15  Occ=0.000000D+00  E= 9.628957D-01

       Multipole analysis of the density wrt the origin
       ------------------------------------------------

     L   x y z        total         open         nuclear
     -   - - -        -----         ----         -------
     0   0 0 0     -0.000000      0.000000     10.000000

     1   1 0 0      0.632418      0.000000     -0.000000
     1   0 1 0     -0.000000      0.000000      0.000000
     1   0 0 1      0.469675      0.000000      0.000000

     2   2 0 0     -3.997417      0.000000      2.802963
     2   1 1 0      0.000000      0.000000      0.000000
     2   1 0 1     -0.753620      0.000000     -1.171590
     2   0 2 0     -5.455487      0.000000      0.000000
     2   0 1 1      0.000000      0.000000      0.000000

 CCSD total energy / hartree       =       -76.336952397978649
 Total times  cpu:      643.8s     wall:      643.8s
