============================== echo of input deck ==============================
 echo
 start H2O
 title "H2O"

 memory total 24 gb

 geometry units angstrom
 symmetry c1
   zmatrix
     O
     H1 O 0.97551
     H2 O 0.97551 H1 106.25
   end
 end

 basis spherical
   * library cc-pVTZ
 end

 tce
   2eorb
   2emet 13
   ccsd
   maxiter 300
 end

# set tce:print_integrals T
# set tce:qorb 8
# set tce:qela 5
# set tce:qelb 5

 set tce:qducc T
 set tce:nactv 3
 set tce:nonhf T
 set tce:ducc_model 6

 set tce:printtol 0.02

 task tce
================================================================================

 Output coordinates in angstroms (scale by  1.889725989 to convert to a.u.)

  No.       Tag          Charge          X              Y              Z
 ---- ---------------- ---------- -------------- -------------- --------------
    1 O                    8.0000    -0.09365382     0.00000000    -0.07025340
    2 H1                   1.0000    -0.09365382     0.00000000     0.90525660
    3 H2                   1.0000     0.84288441     0.00000000    -0.34322940

         Total SCF energy =    -76.055243790167

 Vector    2  Occ=2.000000D+00  E=-1.335147D+00

 Vector    3  Occ=2.000000D+00  E=-7.030520D-01

 Vector    4  Occ=2.000000D+00  E=-5.708356D-01

 Vector    5  Occ=2.000000D+00  E=-5.024273D-01

 Vector    6  Occ=0.000000D+00  E= 1.405747D-01

 Vector    7  Occ=0.000000D+00  E= 2.020048D-01

 Vector    8  Occ=0.000000D+00  E= 5.397109D-01

 Vector    9  Occ=0.000000D+00  E= 5.850591D-01

 Vector   10  Occ=0.000000D+00  E= 6.732806D-01

 Vector   11  Occ=0.000000D+00  E= 7.874835D-01

 Vector   12  Occ=0.000000D+00  E= 8.039720D-01

 Vector   13  Occ=0.000000D+00  E= 8.068784D-01

 Vector   14  Occ=0.000000D+00  E= 8.536385D-01

 Vector   15  Occ=0.000000D+00  E= 9.605984D-01

       Multipole analysis of the density wrt the origin
       ------------------------------------------------

     L   x y z        total         open         nuclear
     -   - - -        -----         ----         -------
     0   0 0 0     -0.000000      0.000000     10.000000

     1   1 0 0      0.633004      0.000000      0.000000
     1   0 1 0     -0.000000      0.000000      0.000000
     1   0 0 1      0.474841      0.000000      0.000000

     2   2 0 0     -3.989254      0.000000      2.818975
     2   1 1 0      0.000000      0.000000      0.000000
     2   1 0 1     -0.741032      0.000000     -1.147910
     2   0 2 0     -5.454998      0.000000      0.000000
     2   0 1 1      0.000000      0.000000      0.000000

 CCSD total energy / hartree       =       -76.337042217386212
 Total times  cpu:      645.0s     wall:      645.0s
