============================== echo of input deck ==============================
 echo
 start H2O
 title "H2O"

 memory total 24 gb

 geometry units angstrom
 symmetry c1
   zmatrix
     O
     H1 O 0.97551
     H2 O 0.97551 H1 106.95
   end
 end

 basis spherical
   * library cc-pVTZ
 end

 tce
   2eorb
   2emet 13
   ccsd
   maxiter 300
 end

# set tce:print_integrals T
# set tce:qorb 8
# set tce:qela 5
# set tce:qelb 5

 set tce:qducc T
 set tce:nactv 3
 set tce:nonhf T
 set tce:ducc_model 6

 set tce:printtol 0.02

 task tce
================================================================================

 Output coordinates in angstroms (scale by  1.889725989 to convert to a.u.)

  No.       Tag          Charge          X              Y              Z
 ---- ---------------- ---------- -------------- -------------- --------------
    1 O                    8.0000    -0.09331334     0.00000000    -0.06911127
    2 H1                   1.0000    -0.09331334     0.00000000     0.90639873
    3 H2                   1.0000     0.83982005     0.00000000    -0.35350859

         Total SCF energy =    -76.055176269481

 Vector    2  Occ=2.000000D+00  E=-1.334640D+00

 Vector    3  Occ=2.000000D+00  E=-7.042985D-01

 Vector    4  Occ=2.000000D+00  E=-5.694638D-01

 Vector    5  Occ=2.000000D+00  E=-5.021798D-01

 Vector    6  Occ=0.000000D+00  E= 1.406706D-01

 Vector    7  Occ=0.000000D+00  E= 2.018726D-01

 Vector    8  Occ=0.000000D+00  E= 5.409845D-01

 Vector    9  Occ=0.000000D+00  E= 5.824825D-01

 Vector   10  Occ=0.000000D+00  E= 6.739284D-01

 Vector   11  Occ=0.000000D+00  E= 7.876362D-01

 Vector   12  Occ=0.000000D+00  E= 8.035129D-01

 Vector   13  Occ=0.000000D+00  E= 8.107883D-01

 Vector   14  Occ=0.000000D+00  E= 8.521914D-01

 Vector   15  Occ=0.000000D+00  E= 9.635226D-01

       Multipole analysis of the density wrt the origin
       ------------------------------------------------

     L   x y z        total         open         nuclear
     -   - - -        -----         ----         -------
     0   0 0 0     -0.000000      0.000000     10.000000

     1   1 0 0      0.632249      0.000000      0.000000
     1   0 1 0     -0.000000      0.000000      0.000000
     1   0 0 1      0.468266      0.000000      0.000000

     2   2 0 0     -3.999687      0.000000      2.798515
     2   1 1 0      0.000000      0.000000      0.000000
     2   1 0 1     -0.757023      0.000000     -1.177989
     2   0 2 0     -5.455622      0.000000      0.000000
     2   0 1 1      0.000000      0.000000      0.000000

 CCSD total energy / hartree       =       -76.336925405088834
 Total times  cpu:      660.6s     wall:      660.6s
