============================== echo of input deck ==============================
 echo
 start H2O
 title "H2O"

 memory total 24 gb

 geometry units angstrom
 symmetry c1
   zmatrix
     O
     H1 O 0.97551
     H2 O 0.97551 H1 106.00
   end
 end

 basis spherical
   * library cc-pVTZ
 end

 tce
   2eorb
   2emet 13
   ccsd
   maxiter 300
 end

# set tce:print_integrals T
# set tce:qorb 8
# set tce:qela 5
# set tce:qelb 5

 set tce:qducc T
 set tce:nactv 3
 set tce:nonhf T
 set tce:ducc_model 6

 set tce:printtol 0.02

 task tce
================================================================================

 Output coordinates in angstroms (scale by  1.889725989 to convert to a.u.)

  No.       Tag          Charge          X              Y              Z
 ---- ---------------- ---------- -------------- -------------- --------------
    1 O                    8.0000    -0.09377204     0.00000000    -0.07066230
    2 H1                   1.0000    -0.09377204     0.00000000     0.90484770
    3 H2                   1.0000     0.84394836     0.00000000    -0.33954930

         Total SCF energy =    -76.055261806636

 Vector    2  Occ=2.000000D+00  E=-1.335329D+00

 Vector    3  Occ=2.000000D+00  E=-7.026036D-01

 Vector    4  Occ=2.000000D+00  E=-5.713262D-01

 Vector    5  Occ=2.000000D+00  E=-5.025153D-01

 Vector    6  Occ=0.000000D+00  E= 1.405389D-01

 Vector    7  Occ=0.000000D+00  E= 2.020520D-01

 Vector    8  Occ=0.000000D+00  E= 5.392616D-01

 Vector    9  Occ=0.000000D+00  E= 5.859753D-01

 Vector   10  Occ=0.000000D+00  E= 6.730584D-01

 Vector   11  Occ=0.000000D+00  E= 7.874289D-01

 Vector   12  Occ=0.000000D+00  E= 8.041340D-01

 Vector   13  Occ=0.000000D+00  E= 8.055056D-01

 Vector   14  Occ=0.000000D+00  E= 8.541582D-01

 Vector   15  Occ=0.000000D+00  E= 9.595552D-01

       Multipole analysis of the density wrt the origin
       ------------------------------------------------

     L   x y z        total         open         nuclear
     -   - - -        -----         ----         -------
     0   0 0 0     -0.000000      0.000000     10.000000

     1   1 0 0      0.633253      0.000000      0.000000
     1   0 1 0      0.000000      0.000000      0.000000
     1   0 0 1      0.477190      0.000000      0.000000

     2   2 0 0     -3.985627      0.000000      2.826096
     2   1 1 0      0.000000      0.000000      0.000000
     2   1 0 1     -0.735253      0.000000     -1.137035
     2   0 2 0     -5.454777      0.000000      0.000000
     2   0 1 1     -0.000000      0.000000      0.000000

 CCSD total energy / hartree       =       -76.337078261507273
 Total times  cpu:      642.1s     wall:      642.1s
