============================== echo of input deck ==============================
 echo
 start H2O
 title "H2O"

 memory total 24 gb

 geometry units angstrom
 symmetry c1
   zmatrix
     O
     H1 O 0.97551
     H2 O 0.97551 H1 107.75
   end
 end

 basis spherical
   * library cc-pVTZ
 end

 tce
   2eorb
   2emet 13
   ccsd
   maxiter 300
 end

# set tce:print_integrals T
# set tce:qorb 8
# set tce:qela 5
# set tce:qelb 5

 set tce:qducc T
 set tce:nactv 3
 set tce:nonhf T
 set tce:ducc_model 6

 set tce:printtol 0.02

 task tce
================================================================================

 Output coordinates in angstroms (scale by  1.889725989 to convert to a.u.)

  No.       Tag          Charge          X              Y              Z
 ---- ---------------- ---------- -------------- -------------- --------------
    1 O                    8.0000    -0.09290716     0.00000000    -0.06781118
    2 H1                   1.0000    -0.09290716     0.00000000     0.90769882
    3 H2                   1.0000     0.83616446     0.00000000    -0.36520936

         Total SCF energy =    -76.055068598077

 Vector    2  Occ=2.000000D+00  E=-1.334063D+00

 Vector    3  Occ=2.000000D+00  E=-7.057064D-01

 Vector    4  Occ=2.000000D+00  E=-5.678993D-01

 Vector    5  Occ=2.000000D+00  E=-5.018948D-01

 Vector    6  Occ=0.000000D+00  E= 1.407723D-01

 Vector    7  Occ=0.000000D+00  E= 2.017218D-01

 Vector    8  Occ=0.000000D+00  E= 5.424679D-01

 Vector    9  Occ=0.000000D+00  E= 5.795218D-01

 Vector   10  Occ=0.000000D+00  E= 6.747160D-01

 Vector   11  Occ=0.000000D+00  E= 7.878107D-01

 Vector   12  Occ=0.000000D+00  E= 8.029780D-01

 Vector   13  Occ=0.000000D+00  E= 8.153719D-01

 Vector   14  Occ=0.000000D+00  E= 8.505524D-01

 Vector   15  Occ=0.000000D+00  E= 9.668691D-01

       Multipole analysis of the density wrt the origin
       ------------------------------------------------

     L   x y z        total         open         nuclear
     -   - - -        -----         ----         -------
     0   0 0 0     -0.000000      0.000000     10.000000

     1   1 0 0      0.631281      0.000000      0.000000
     1   0 1 0      0.000000      0.000000      0.000000
     1   0 0 1      0.460760      0.000000      0.000000

     2   2 0 0     -4.012109      0.000000      2.774205
     2   1 1 0      0.000000      0.000000      0.000000
     2   1 0 1     -0.774948      0.000000     -1.211682
     2   0 2 0     -5.456351      0.000000      0.000000
     2   0 1 1      0.000000      0.000000      0.000000

 CCSD total energy / hartree       =       -76.336763536549398
 Total times  cpu:      685.2s     wall:      685.2s
