============================== echo of input deck ==============================
 echo
 start H2O
 title "H2O"

 memory total 24 gb

 geometry units angstrom
 symmetry c1
   zmatrix
     O
     H1 O 0.97551
     H2 O 0.97551 H1 107.50
   end
 end

 basis spherical
   * library cc-pVTZ
 end

 tce
   2eorb
   2emet 13
   ccsd
   maxiter 300
 end

# set tce:print_integrals T
# set tce:qorb 8
# set tce:qela 5
# set tce:qelb 5

 set tce:qducc T
 set tce:nactv 3
 set tce:nonhf T
 set tce:ducc_model 6

 set tce:printtol 0.02

 task tce
================================================================================

 Output coordinates in angstroms (scale by  1.889725989 to convert to a.u.)

  No.       Tag          Charge          X              Y              Z
 ---- ---------------- ---------- -------------- -------------- --------------
    1 O                    8.0000    -0.09303604     0.00000000    -0.06821685
    2 H1                   1.0000    -0.09303604     0.00000000     0.90729315
    3 H2                   1.0000     0.83732438     0.00000000    -0.36155836

         Total SCF energy =    -76.055105715445

 Vector    2  Occ=2.000000D+00  E=-1.334243D+00

 Vector    3  Occ=2.000000D+00  E=-7.052684D-01

 Vector    4  Occ=2.000000D+00  E=-5.683878D-01

 Vector    5  Occ=2.000000D+00  E=-5.019841D-01

 Vector    6  Occ=0.000000D+00  E= 1.407414D-01

 Vector    7  Occ=0.000000D+00  E= 2.017689D-01

 Vector    8  Occ=0.000000D+00  E= 5.420011D-01

 Vector    9  Occ=0.000000D+00  E= 5.804486D-01

 Vector   10  Occ=0.000000D+00  E= 6.744644D-01

 Vector   11  Occ=0.000000D+00  E= 7.877562D-01

 Vector   12  Occ=0.000000D+00  E= 8.031464D-01

 Vector   13  Occ=0.000000D+00  E= 8.139268D-01

 Vector   14  Occ=0.000000D+00  E= 8.510629D-01

 Vector   15  Occ=0.000000D+00  E= 9.658229D-01

       Multipole analysis of the density wrt the origin
       ------------------------------------------------

     L   x y z        total         open         nuclear
     -   - - -        -----         ----         -------
     0   0 0 0     -0.000000      0.000000     10.000000

     1   1 0 0      0.631596      0.000000     -0.000000
     1   0 1 0      0.000000      0.000000      0.000000
     1   0 0 1      0.463105      0.000000      0.000000

     2   2 0 0     -4.008171      0.000000      2.781907
     2   1 1 0      0.000000      0.000000      0.000000
     2   1 0 1     -0.769387      0.000000     -1.201233
     2   0 2 0     -5.456121      0.000000      0.000000
     2   0 1 1      0.000000      0.000000      0.000000

 CCSD total energy / hartree       =       -76.336817346119332
 Total times  cpu:      657.7s     wall:      657.7s
