============================== echo of input deck ==============================
 echo
 start H2O
 title "H2O"

 memory total 24 gb

 geometry units angstrom
 symmetry c1
   zmatrix
     O
     H1 O 0.97551
     H2 O 0.97551 H1 107.40
   end
 end

 basis spherical
   * library cc-pVTZ
 end

 tce
   2eorb
   2emet 13
   ccsd
   maxiter 300
 end

# set tce:print_integrals T
# set tce:qorb 8
# set tce:qela 5
# set tce:qelb 5

 set tce:qducc T
 set tce:nactv 3
 set tce:nonhf T
 set tce:ducc_model 6

 set tce:printtol 0.02

 task tce
================================================================================

 Output coordinates in angstroms (scale by  1.889725989 to convert to a.u.)

  No.       Tag          Charge          X              Y              Z
 ---- ---------------- ---------- -------------- -------------- --------------
    1 O                    8.0000    -0.09308710     0.00000000    -0.06837927
    2 H1                   1.0000    -0.09308710     0.00000000     0.90713073
    3 H2                   1.0000     0.83778388     0.00000000    -0.36009655

         Total SCF energy =    -76.055119681446

 Vector    2  Occ=2.000000D+00  E=-1.334315D+00

 Vector    3  Occ=2.000000D+00  E=-7.050926D-01

 Vector    4  Occ=2.000000D+00  E=-5.685833D-01

 Vector    5  Occ=2.000000D+00  E=-5.020198D-01

 Vector    6  Occ=0.000000D+00  E= 1.407288D-01

 Vector    7  Occ=0.000000D+00  E= 2.017877D-01

 Vector    8  Occ=0.000000D+00  E= 5.418152D-01

 Vector    9  Occ=0.000000D+00  E= 5.808189D-01

 Vector   10  Occ=0.000000D+00  E= 6.743652D-01

 Vector   11  Occ=0.000000D+00  E= 7.877344D-01

 Vector   12  Occ=0.000000D+00  E= 8.032134D-01

 Vector   13  Occ=0.000000D+00  E= 8.133519D-01

 Vector   14  Occ=0.000000D+00  E= 8.512675D-01

 Vector   15  Occ=0.000000D+00  E= 9.654045D-01

       Multipole analysis of the density wrt the origin
       ------------------------------------------------

     L   x y z        total         open         nuclear
     -   - - -        -----         ----         -------
     0   0 0 0     -0.000000      0.000000     10.000000

     1   1 0 0      0.631718      0.000000      0.000000
     1   0 1 0      0.000000      0.000000      0.000000
     1   0 0 1      0.464043      0.000000      0.000000

     2   2 0 0     -4.006610      0.000000      2.784961
     2   1 1 0     -0.000000      0.000000      0.000000
     2   1 0 1     -0.767153      0.000000     -1.197033
     2   0 2 0     -5.456030      0.000000      0.000000
     2   0 1 1      0.000000      0.000000      0.000000

 CCSD total energy / hartree       =       -76.336838051176542
 Total times  cpu:      650.2s     wall:      650.2s
