============================== echo of input deck ==============================
 echo
 start H2O
 title "H2O"

 memory total 24 gb

 geometry units angstrom
 symmetry c1
   zmatrix
     O
     H1 O 0.97551
     H2 O 0.97551 H1 107.25
   end
 end

 basis spherical
   * library cc-pVTZ
 end

 tce
   2eorb
   2emet 13
   ccsd
   maxiter 300
 end

# set tce:print_integrals T
# set tce:qorb 8
# set tce:qela 5
# set tce:qelb 5

 set tce:qducc T
 set tce:nactv 3
 set tce:nonhf T
 set tce:ducc_model 6

 set tce:printtol 0.02

 task tce
================================================================================

 Output coordinates in angstroms (scale by  1.889725989 to convert to a.u.)

  No.       Tag          Charge          X              Y              Z
 ---- ---------------- ---------- -------------- -------------- --------------
    1 O                    8.0000    -0.09316315     0.00000000    -0.06862307
    2 H1                   1.0000    -0.09316315     0.00000000     0.90688693
    3 H2                   1.0000     0.83846836     0.00000000    -0.35790234

         Total SCF energy =    -76.055139683770

 Vector    2  Occ=2.000000D+00  E=-1.334423D+00

 Vector    3  Occ=2.000000D+00  E=-7.048285D-01

 Vector    4  Occ=2.000000D+00  E=-5.688767D-01

 Vector    5  Occ=2.000000D+00  E=-5.020732D-01

 Vector    6  Occ=0.000000D+00  E= 1.407097D-01

 Vector    7  Occ=0.000000D+00  E= 2.018160D-01

 Vector    8  Occ=0.000000D+00  E= 5.415373D-01

 Vector    9  Occ=0.000000D+00  E= 5.813740D-01

 Vector   10  Occ=0.000000D+00  E= 6.742178D-01

 Vector   11  Occ=0.000000D+00  E= 7.877017D-01

 Vector   12  Occ=0.000000D+00  E= 8.033136D-01

 Vector   13  Occ=0.000000D+00  E= 8.124931D-01

 Vector   14  Occ=0.000000D+00  E= 8.515749D-01

 Vector   15  Occ=0.000000D+00  E= 9.647771D-01

       Multipole analysis of the density wrt the origin
       ------------------------------------------------

     L   x y z        total         open         nuclear
     -   - - -        -----         ----         -------
     0   0 0 0     -0.000000      0.000000     10.000000

     1   1 0 0      0.631899      0.000000      0.000000
     1   0 1 0     -0.000000      0.000000      0.000000
     1   0 0 1      0.465451      0.000000      0.000000

     2   2 0 0     -4.004284      0.000000      2.789514
     2   1 1 0     -0.000000      0.000000      0.000000
     2   1 0 1     -0.763789      0.000000     -1.190711
     2   0 2 0     -5.455894      0.000000      0.000000
     2   0 1 1     -0.000000      0.000000      0.000000

 CCSD total energy / hartree       =       -76.336868228745303
 Total times  cpu:      645.7s     wall:      645.7s
