============================== echo of input deck ==============================
 echo
 start H2O
 title "H2O"

 memory total 24 gb

 geometry units angstrom
 symmetry c1
   zmatrix
     O
     H1 O 0.97551
     H2 O 0.97551 H1 107.15
   end
 end

 basis spherical
   * library cc-pVTZ
 end

 tce
   2eorb
   2emet 13
   ccsd
   maxiter 300
 end

# set tce:print_integrals T
# set tce:qorb 8
# set tce:qela 5
# set tce:qelb 5

 set tce:qducc T
 set tce:nactv 3
 set tce:nonhf T
 set tce:ducc_model 6

 set tce:printtol 0.02

 task tce
================================================================================

 Output coordinates in angstroms (scale by  1.889725989 to convert to a.u.)

  No.       Tag          Charge          X              Y              Z
 ---- ---------------- ---------- -------------- -------------- --------------
    1 O                    8.0000    -0.09321350     0.00000000    -0.06878572
    2 H1                   1.0000    -0.09321350     0.00000000     0.90672428
    3 H2                   1.0000     0.83892148     0.00000000    -0.35643855

         Total SCF energy =    -76.055152386261

 Vector    2  Occ=2.000000D+00  E=-1.334496D+00

 Vector    3  Occ=2.000000D+00  E=-7.046521D-01

 Vector    4  Occ=2.000000D+00  E=-5.690723D-01

 Vector    5  Occ=2.000000D+00  E=-5.021088D-01

 Vector    6  Occ=0.000000D+00  E= 1.406968D-01

 Vector    7  Occ=0.000000D+00  E= 2.018349D-01

 Vector    8  Occ=0.000000D+00  E= 5.413525D-01

 Vector    9  Occ=0.000000D+00  E= 5.817437D-01

 Vector   10  Occ=0.000000D+00  E= 6.741206D-01

 Vector   11  Occ=0.000000D+00  E= 7.876798D-01

 Vector   12  Occ=0.000000D+00  E= 8.033802D-01

 Vector   13  Occ=0.000000D+00  E= 8.119230D-01

 Vector   14  Occ=0.000000D+00  E= 8.517802D-01

 Vector   15  Occ=0.000000D+00  E= 9.643589D-01

       Multipole analysis of the density wrt the origin
       ------------------------------------------------

     L   x y z        total         open         nuclear
     -   - - -        -----         ----         -------
     0   0 0 0     -0.000000      0.000000     10.000000

     1   1 0 0      0.632017      0.000000      0.000000
     1   0 1 0      0.000000      0.000000      0.000000
     1   0 0 1      0.466389      0.000000      0.000000

     2   2 0 0     -4.002743      0.000000      2.792530
     2   1 1 0      0.000000      0.000000      0.000000
     2   1 0 1     -0.761540      0.000000     -1.186482
     2   0 2 0     -5.455803      0.000000      0.000000
     2   0 1 1      0.000000      0.000000      0.000000

 CCSD total energy / hartree       =       -76.336887759192848
 Total times  cpu:      758.5s     wall:      758.5s
