============================== echo of input deck ==============================
 echo
 start H2O
 title "H2O"

 memory total 24 gb

 geometry units angstrom
 symmetry c1
   zmatrix
     O
     H1 O 0.97551
     H2 O 0.97551 H1 107.00
   end
 end

 basis spherical
   * library cc-pVTZ
 end

 tce
   2eorb
   2emet 13
   ccsd
   maxiter 300
 end

# set tce:print_integrals T
# set tce:qorb 8
# set tce:qela 5
# set tce:qelb 5

 set tce:qducc T
 set tce:nactv 3
 set tce:nonhf T
 set tce:ducc_model 6

 set tce:printtol 0.02

 task tce
================================================================================

 Output coordinates in angstroms (scale by  1.889725989 to convert to a.u.)

  No.       Tag          Charge          X              Y              Z
 ---- ---------------- ---------- -------------- -------------- --------------
    1 O                    8.0000    -0.09328849     0.00000000    -0.06902985
    2 H1                   1.0000    -0.09328849     0.00000000     0.90648015
    3 H2                   1.0000     0.83959637     0.00000000    -0.35424137

         Total SCF energy =    -76.055170489178

 Vector    2  Occ=2.000000D+00  E=-1.334604D+00

 Vector    3  Occ=2.000000D+00  E=-7.043870D-01

 Vector    4  Occ=2.000000D+00  E=-5.693659D-01

 Vector    5  Occ=2.000000D+00  E=-5.021621D-01

 Vector    6  Occ=0.000000D+00  E= 1.406772D-01

 Vector    7  Occ=0.000000D+00  E= 2.018632D-01

 Vector    8  Occ=0.000000D+00  E= 5.410763D-01

 Vector    9  Occ=0.000000D+00  E= 5.822979D-01

 Vector   10  Occ=0.000000D+00  E= 6.739762D-01

 Vector   11  Occ=0.000000D+00  E= 7.876471D-01

 Vector   12  Occ=0.000000D+00  E= 8.034798D-01

 Vector   13  Occ=0.000000D+00  E= 8.110713D-01

 Vector   14  Occ=0.000000D+00  E= 8.520885D-01

 Vector   15  Occ=0.000000D+00  E= 9.637317D-01

       Multipole analysis of the density wrt the origin
       ------------------------------------------------

     L   x y z        total         open         nuclear
     -   - - -        -----         ----         -------
     0   0 0 0      0.000000      0.000000     10.000000

     1   1 0 0      0.632191      0.000000      0.000000
     1   0 1 0      0.000000      0.000000      0.000000
     1   0 0 1      0.467797      0.000000      0.000000

     2   2 0 0     -4.000448      0.000000      2.797024
     2   1 1 0      0.000000      0.000000      0.000000
     2   1 0 1     -0.758154      0.000000     -1.180117
     2   0 2 0     -5.455667      0.000000      0.000000
     2   0 1 1      0.000000      0.000000      0.000000

 CCSD total energy / hartree       =       -76.336916170768234
 Total times  cpu:      652.7s     wall:      652.7s
