============================== echo of input deck ==============================
 echo
 start H2O
 title "H2O"

 memory total 24 gb

 geometry units angstrom
 symmetry c1
   zmatrix
     O
     H1 O 0.97551
     H2 O 0.97551 H1 107.90
   end
 end

 basis spherical
   * library cc-pVTZ
 end

 tce
   2eorb
   2emet 13
   ccsd
   maxiter 300
 end

# set tce:print_integrals T
# set tce:qorb 8
# set tce:qela 5
# set tce:qelb 5

 set tce:qducc T
 set tce:nactv 3
 set tce:nonhf T
 set tce:ducc_model 6

 set tce:printtol 0.02

 task tce
================================================================================

 Output coordinates in angstroms (scale by  1.889725989 to convert to a.u.)

  No.       Tag          Charge          X              Y              Z
 ---- ---------------- ---------- -------------- -------------- --------------
    1 O                    8.0000    -0.09282899     0.00000000    -0.06756805
    2 H1                   1.0000    -0.09282899     0.00000000     0.90794195
    3 H2                   1.0000     0.83546087     0.00000000    -0.36739751

         Total SCF energy =    -76.055044821962

 Vector    2  Occ=2.000000D+00  E=-1.333956D+00

 Vector    3  Occ=2.000000D+00  E=-7.059685D-01

 Vector    4  Occ=2.000000D+00  E=-5.676064D-01

 Vector    5  Occ=2.000000D+00  E=-5.018410D-01

 Vector    6  Occ=0.000000D+00  E= 1.407904D-01

 Vector    7  Occ=0.000000D+00  E= 2.016935D-01

 Vector    8  Occ=0.000000D+00  E= 5.427493D-01

 Vector    9  Occ=0.000000D+00  E= 5.789651D-01

 Vector   10  Occ=0.000000D+00  E= 6.748694D-01

 Vector   11  Occ=0.000000D+00  E= 7.878434D-01

 Vector   12  Occ=0.000000D+00  E= 8.028764D-01

 Vector   13  Occ=0.000000D+00  E= 8.162445D-01

 Vector   14  Occ=0.000000D+00  E= 8.502468D-01

 Vector   15  Occ=0.000000D+00  E= 9.674969D-01

       Multipole analysis of the density wrt the origin
       ------------------------------------------------

     L   x y z        total         open         nuclear
     -   - - -        -----         ----         -------
     0   0 0 0     -0.000000      0.000000     10.000000

     1   1 0 0      0.631088      0.000000      0.000000
     1   0 1 0      0.000000      0.000000      0.000000
     1   0 0 1      0.459354      0.000000      0.000000

     2   2 0 0     -4.014496      0.000000      2.769538
     2   1 1 0     -0.000000      0.000000      0.000000
     2   1 0 1     -0.778267      0.000000     -1.217916
     2   0 2 0     -5.456489      0.000000      0.000000
     2   0 1 1      0.000000      0.000000      0.000000

 CCSD total energy / hartree       =       -76.336729851620277
 Total times  cpu:      661.3s     wall:      661.3s
