============================== echo of input deck ==============================
 echo
 start H2O
 title "H2O"

 memory total 24 gb

 geometry units angstrom
 symmetry c1
   zmatrix
     O
     H1 O 0.97551
     H2 O 0.97551 H1 107.10
   end
 end

 basis spherical
   * library cc-pVTZ
 end

 tce
   2eorb
   2emet 13
   ccsd
   maxiter 300
 end

# set tce:print_integrals T
# set tce:qorb 8
# set tce:qela 5
# set tce:qelb 5

 set tce:qducc T
 set tce:nactv 3
 set tce:nonhf T
 set tce:ducc_model 6

 set tce:printtol 0.02

 task tce
================================================================================

 Output coordinates in angstroms (scale by  1.889725989 to convert to a.u.)

  No.       Tag          Charge          X              Y              Z
 ---- ---------------- ---------- -------------- -------------- --------------
    1 O                    8.0000    -0.09323856     0.00000000    -0.06886707
    2 H1                   1.0000    -0.09323856     0.00000000     0.90664293
    3 H2                   1.0000     0.83914708     0.00000000    -0.35570635

         Total SCF energy =    -76.055158547457

 Vector    2  Occ=2.000000D+00  E=-1.334532D+00

 Vector    3  Occ=2.000000D+00  E=-7.045638D-01

 Vector    4  Occ=2.000000D+00  E=-5.691701D-01

 Vector    5  Occ=2.000000D+00  E=-5.021265D-01

 Vector    6  Occ=0.000000D+00  E= 1.406903D-01

 Vector    7  Occ=0.000000D+00  E= 2.018443D-01

 Vector    8  Occ=0.000000D+00  E= 5.412603D-01

 Vector    9  Occ=0.000000D+00  E= 5.819285D-01

 Vector   10  Occ=0.000000D+00  E= 6.740722D-01

 Vector   11  Occ=0.000000D+00  E= 7.876689D-01

 Vector   12  Occ=0.000000D+00  E= 8.034135D-01

 Vector   13  Occ=0.000000D+00  E= 8.116386D-01

 Vector   14  Occ=0.000000D+00  E= 8.518829D-01

 Vector   15  Occ=0.000000D+00  E= 9.641498D-01

       Multipole analysis of the density wrt the origin
       ------------------------------------------------

     L   x y z        total         open         nuclear
     -   - - -        -----         ----         -------
     0   0 0 0     -0.000000      0.000000     10.000000

     1   1 0 0      0.632076      0.000000      0.000000
     1   0 1 0      0.000000      0.000000      0.000000
     1   0 0 1      0.466858      0.000000      0.000000

     2   2 0 0     -4.001976      0.000000      2.794032
     2   1 1 0      0.000000      0.000000      0.000000
     2   1 0 1     -0.760413      0.000000     -1.184363
     2   0 2 0     -5.455758      0.000000      0.000000
     2   0 1 1     -0.000000      0.000000      0.000000

 CCSD total energy / hartree       =       -76.336897347709865
 Total times  cpu:      659.5s     wall:      659.5s
