============================== echo of input deck ==============================
 echo
 start H2O
 title "H2O"

 memory total 24 gb

 geometry units angstrom
 symmetry c1
   zmatrix
     O
     H1 O 0.97551
     H2 O 0.97551 H1 107.55
   end
 end

 basis spherical
   * library cc-pVTZ
 end

 tce
   2eorb
   2emet 13
   ccsd
   maxiter 300
 end

# set tce:print_integrals T
# set tce:qorb 8
# set tce:qela 5
# set tce:qelb 5

 set tce:qducc T
 set tce:nactv 3
 set tce:nonhf T
 set tce:ducc_model 6

 set tce:printtol 0.02

 task tce
================================================================================

 Output coordinates in angstroms (scale by  1.889725989 to convert to a.u.)

  No.       Tag          Charge          X              Y              Z
 ---- ---------------- ---------- -------------- -------------- --------------
    1 O                    8.0000    -0.09301041     0.00000000    -0.06813567
    2 H1                   1.0000    -0.09301041     0.00000000     0.90737433
    3 H2                   1.0000     0.83709367     0.00000000    -0.36228897

         Total SCF energy =    -76.055098543459

 Vector    2  Occ=2.000000D+00  E=-1.334207D+00

 Vector    3  Occ=2.000000D+00  E=-7.053561D-01

 Vector    4  Occ=2.000000D+00  E=-5.682901D-01

 Vector    5  Occ=2.000000D+00  E=-5.019662D-01

 Vector    6  Occ=0.000000D+00  E= 1.407476D-01

 Vector    7  Occ=0.000000D+00  E= 2.017595D-01

 Vector    8  Occ=0.000000D+00  E= 5.420943D-01

 Vector    9  Occ=0.000000D+00  E= 5.802633D-01

 Vector   10  Occ=0.000000D+00  E= 6.745143D-01

 Vector   11  Occ=0.000000D+00  E= 7.877671D-01

 Vector   12  Occ=0.000000D+00  E= 8.031128D-01

 Vector   13  Occ=0.000000D+00  E= 8.142149D-01

 Vector   14  Occ=0.000000D+00  E= 8.509607D-01

 Vector   15  Occ=0.000000D+00  E= 9.660321D-01

       Multipole analysis of the density wrt the origin
       ------------------------------------------------

     L   x y z        total         open         nuclear
     -   - - -        -----         ----         -------
     0   0 0 0     -0.000000      0.000000     10.000000

     1   1 0 0      0.631534      0.000000     -0.000000
     1   0 1 0      0.000000      0.000000      0.000000
     1   0 0 1      0.462636      0.000000      0.000000

     2   2 0 0     -4.008954      0.000000      2.780374
     2   1 1 0      0.000000      0.000000      0.000000
     2   1 0 1     -0.770503      0.000000     -1.203329
     2   0 2 0     -5.456167      0.000000      0.000000
     2   0 1 1      0.000000      0.000000      0.000000

 CCSD total energy / hartree       =       -76.336806817934175
 Total times  cpu:      660.7s     wall:      660.7s
