============================== echo of input deck ==============================
 echo
 start H2O
 title "H2O"

 memory total 24 gb

 geometry units angstrom
 symmetry c1
   zmatrix
     O
     H1 O 0.97551
     H2 O 0.97551 H1 107.80
   end
 end

 basis spherical
   * library cc-pVTZ
 end

 tce
   2eorb
   2emet 13
   ccsd
   maxiter 300
 end

# set tce:print_integrals T
# set tce:qorb 8
# set tce:qela 5
# set tce:qelb 5

 set tce:qducc T
 set tce:nactv 3
 set tce:nonhf T
 set tce:ducc_model 6

 set tce:printtol 0.02

 task tce
================================================================================

 Output coordinates in angstroms (scale by  1.889725989 to convert to a.u.)

  No.       Tag          Charge          X              Y              Z
 ---- ---------------- ---------- -------------- -------------- --------------
    1 O                    8.0000    -0.09288117     0.00000000    -0.06773012
    2 H1                   1.0000    -0.09288117     0.00000000     0.90777988
    3 H2                   1.0000     0.83593057     0.00000000    -0.36593894

         Total SCF energy =    -76.055060797956

 Vector    2  Occ=2.000000D+00  E=-1.334027D+00

 Vector    3  Occ=2.000000D+00  E=-7.057939D-01

 Vector    4  Occ=2.000000D+00  E=-5.678017D-01

 Vector    5  Occ=2.000000D+00  E=-5.018769D-01

 Vector    6  Occ=0.000000D+00  E= 1.407784D-01

 Vector    7  Occ=0.000000D+00  E= 2.017123D-01

 Vector    8  Occ=0.000000D+00  E= 5.425616D-01

 Vector    9  Occ=0.000000D+00  E= 5.793363D-01

 Vector   10  Occ=0.000000D+00  E= 6.747669D-01

 Vector   11  Occ=0.000000D+00  E= 7.878216D-01

 Vector   12  Occ=0.000000D+00  E= 8.029442D-01

 Vector   13  Occ=0.000000D+00  E= 8.156624D-01

 Vector   14  Occ=0.000000D+00  E= 8.504505D-01

 Vector   15  Occ=0.000000D+00  E= 9.670783D-01

       Multipole analysis of the density wrt the origin
       ------------------------------------------------

     L   x y z        total         open         nuclear
     -   - - -        -----         ----         -------
     0   0 0 0     -0.000000      0.000000     10.000000

     1   1 0 0      0.631217      0.000000      0.000000
     1   0 1 0      0.000000      0.000000      0.000000
     1   0 0 1      0.460292      0.000000      0.000000

     2   2 0 0     -4.012903      0.000000      2.772653
     2   1 1 0      0.000000      0.000000      0.000000
     2   1 0 1     -0.776056      0.000000     -1.213763
     2   0 2 0     -5.456397      0.000000      0.000000
     2   0 1 1      0.000000      0.000000      0.000000

 CCSD total energy / hartree       =       -76.336752424617401
 Total times  cpu:      655.8s     wall:      655.8s
