============================== echo of input deck ==============================
 echo
 start H2O
 title "H2O"

 memory total 24 gb

 geometry units angstrom
 symmetry c1
   zmatrix
     O
     H1 O 0.97551
     H2 O 0.97551 H1 108.30
   end
 end

 basis spherical
   * library cc-pVTZ
 end

 tce
   2eorb
   2emet 13
   ccsd
   maxiter 300
 end

# set tce:print_integrals T
# set tce:qorb 8
# set tce:qela 5
# set tce:qelb 5

 set tce:qducc T
 set tce:nactv 3
 set tce:nonhf T
 set tce:ducc_model 6

 set tce:printtol 0.02

 task tce
================================================================================

 Output coordinates in angstroms (scale by  1.889725989 to convert to a.u.)

  No.       Tag          Charge          X              Y              Z
 ---- ---------------- ---------- -------------- -------------- --------------
    1 O                    8.0000    -0.09261740     0.00000000    -0.06692072
    2 H1                   1.0000    -0.09261740     0.00000000     0.90858928
    3 H2                   1.0000     0.83355664     0.00000000    -0.37322350

         Total SCF energy =    -76.054975924441

 Vector    2  Occ=2.000000D+00  E=-1.333669D+00

 Vector    3  Occ=2.000000D+00  E=-7.066641D-01

 Vector    4  Occ=2.000000D+00  E=-5.668259D-01

 Vector    5  Occ=2.000000D+00  E=-5.016974D-01

 Vector    6  Occ=0.000000D+00  E= 1.408374D-01

 Vector    7  Occ=0.000000D+00  E= 2.016182D-01

 Vector    8  Occ=0.000000D+00  E= 5.435048D-01

 Vector    9  Occ=0.000000D+00  E= 5.774789D-01

 Vector   10  Occ=0.000000D+00  E= 6.752873D-01

 Vector   11  Occ=0.000000D+00  E= 7.879307D-01

 Vector   12  Occ=0.000000D+00  E= 8.026034D-01

 Vector   13  Occ=0.000000D+00  E= 8.185910D-01

 Vector   14  Occ=0.000000D+00  E= 8.494347D-01

 Vector   15  Occ=0.000000D+00  E= 9.691717D-01

       Multipole analysis of the density wrt the origin
       ------------------------------------------------

     L   x y z        total         open         nuclear
     -   - - -        -----         ----         -------
     0   0 0 0     -0.000000      0.000000     10.000000

     1   1 0 0      0.630551      0.000000      0.000000
     1   0 1 0     -0.000000      0.000000      0.000000
     1   0 0 1      0.455605      0.000000      0.000000

     2   2 0 0     -4.020952      0.000000      2.756928
     2   1 1 0     -0.000000      0.000000      0.000000
     2   1 0 1     -0.787049      0.000000     -1.234410
     2   0 2 0     -5.456861      0.000000      0.000000
     2   0 1 1     -0.000000      0.000000      0.000000

 CCSD total energy / hartree       =       -76.336634920629976
 Total times  cpu:      676.3s     wall:      676.3s
