============================== echo of input deck ==============================
 echo
 start H2O
 title "H2O"

 memory total 24 gb

 geometry units angstrom
 symmetry c1
   zmatrix
     O
     H1 O 0.97551
     H2 O 0.97551 H1 108.40
   end
 end

 basis spherical
   * library cc-pVTZ
 end

 tce
   2eorb
   2emet 13
   ccsd
   maxiter 300
 end

# set tce:print_integrals T
# set tce:qorb 8
# set tce:qela 5
# set tce:qelb 5

 set tce:qducc T
 set tce:nactv 3
 set tce:nonhf T
 set tce:ducc_model 6

 set tce:printtol 0.02

 task tce
================================================================================

 Output coordinates in angstroms (scale by  1.889725989 to convert to a.u.)

  No.       Tag          Charge          X              Y              Z
 ---- ---------------- ---------- -------------- -------------- --------------
    1 O                    8.0000    -0.09256380     0.00000000    -0.06675912
    2 H1                   1.0000    -0.09256380     0.00000000     0.90875088
    3 H2                   1.0000     0.83307423     0.00000000    -0.37467791

         Total SCF energy =    -76.054957456246

 Vector    2  Occ=2.000000D+00  E=-1.333597D+00

 Vector    3  Occ=2.000000D+00  E=-7.068373D-01

 Vector    4  Occ=2.000000D+00  E=-5.666310D-01

 Vector    5  Occ=2.000000D+00  E=-5.016614D-01

 Vector    6  Occ=0.000000D+00  E= 1.408488D-01

 Vector    7  Occ=0.000000D+00  E= 2.015993D-01

 Vector    8  Occ=0.000000D+00  E= 5.436948D-01

 Vector    9  Occ=0.000000D+00  E= 5.771070D-01

 Vector   10  Occ=0.000000D+00  E= 6.753938D-01

 Vector   11  Occ=0.000000D+00  E= 7.879525D-01

 Vector   12  Occ=0.000000D+00  E= 8.025346D-01

 Vector   13  Occ=0.000000D+00  E= 8.191820D-01

 Vector   14  Occ=0.000000D+00  E= 8.492323D-01

 Vector   15  Occ=0.000000D+00  E= 9.695905D-01

       Multipole analysis of the density wrt the origin
       ------------------------------------------------

     L   x y z        total         open         nuclear
     -   - - -        -----         ----         -------
     0   0 0 0     -0.000000      0.000000     10.000000

     1   1 0 0      0.630413      0.000000      0.000000
     1   0 1 0      0.000000      0.000000      0.000000
     1   0 0 1      0.454668      0.000000     -0.000000

     2   2 0 0     -4.022586      0.000000      2.753738
     2   1 1 0      0.000000      0.000000      0.000000
     2   1 0 1     -0.789229      0.000000     -1.238503
     2   0 2 0     -5.456954      0.000000      0.000000
     2   0 1 1      0.000000      0.000000      0.000000

 CCSD total energy / hartree       =       -76.336610032615624
 Total times  cpu:      642.1s     wall:      642.1s
