============================== echo of input deck ==============================
 echo
 start H2O
 title "H2O"

 memory total 24 gb

 geometry units angstrom
 symmetry c1
   zmatrix
     O
     H1 O 0.97551
     H2 O 0.97551 H1 108.75
   end
 end

 basis spherical
   * library cc-pVTZ
 end

 tce
   2eorb
   2emet 13
   ccsd
   maxiter 300
 end

# set tce:print_integrals T
# set tce:qorb 8
# set tce:qela 5
# set tce:qelb 5

 set tce:qducc T
 set tce:nactv 3
 set tce:nonhf T
 set tce:ducc_model 6

 set tce:printtol 0.02

 task tce
================================================================================

 Output coordinates in angstroms (scale by  1.889725989 to convert to a.u.)

  No.       Tag          Charge          X              Y              Z
 ---- ---------------- ---------- -------------- -------------- --------------
    1 O                    8.0000    -0.09237398     0.00000000    -0.06619426
    2 H1                   1.0000    -0.09237398     0.00000000     0.90931574
    3 H2                   1.0000     0.83136583     0.00000000    -0.37976167

         Total SCF energy =    -76.054888919769

 Vector    2  Occ=2.000000D+00  E=-1.333347D+00

 Vector    3  Occ=2.000000D+00  E=-7.074414D-01

 Vector    4  Occ=2.000000D+00  E=-5.659490D-01

 Vector    5  Occ=2.000000D+00  E=-5.015351D-01

 Vector    6  Occ=0.000000D+00  E= 1.408878D-01

 Vector    7  Occ=0.000000D+00  E= 2.015335D-01

 Vector    8  Occ=0.000000D+00  E= 5.443635D-01

 Vector    9  Occ=0.000000D+00  E= 5.758042D-01

 Vector   10  Occ=0.000000D+00  E= 6.757732D-01

 Vector   11  Occ=0.000000D+00  E= 7.880288D-01

 Vector   12  Occ=0.000000D+00  E= 8.022925D-01

 Vector   13  Occ=0.000000D+00  E= 8.212641D-01

 Vector   14  Occ=0.000000D+00  E= 8.485258D-01

 Vector   15  Occ=0.000000D+00  E= 9.710564D-01

       Multipole analysis of the density wrt the origin
       ------------------------------------------------

     L   x y z        total         open         nuclear
     -   - - -        -----         ----         -------
     0   0 0 0     -0.000000      0.000000     10.000000

     1   1 0 0      0.629914      0.000000      0.000000
     1   0 1 0     -0.000000      0.000000      0.000000
     1   0 0 1      0.451390      0.000000      0.000000

     2   2 0 0     -4.028368      0.000000      2.742455
     2   1 1 0     -0.000000      0.000000      0.000000
     2   1 0 1     -0.796810      0.000000     -1.252733
     2   0 2 0     -5.457283      0.000000      0.000000
     2   0 1 1     -0.000000      0.000000      0.000000

 CCSD total energy / hartree       =       -76.336519305276710
 Total times  cpu:      647.6s     wall:      647.6s
