============================== echo of input deck ==============================
 echo
 start H2O
 title "H2O"

 memory total 24 gb

 geometry units angstrom
 symmetry c1
   zmatrix
     O
     H1 O 0.97551
     H2 O 0.97551 H1 108.95
   end
 end

 basis spherical
   * library cc-pVTZ
 end

 tce
   2eorb
   2emet 13
   ccsd
   maxiter 300
 end

# set tce:print_integrals T
# set tce:qorb 8
# set tce:qela 5
# set tce:qelb 5

 set tce:qducc T
 set tce:nactv 3
 set tce:nonhf T
 set tce:ducc_model 6

 set tce:printtol 0.02

 task tce
================================================================================

 Output coordinates in angstroms (scale by  1.889725989 to convert to a.u.)

  No.       Tag          Charge          X              Y              Z
 ---- ---------------- ---------- -------------- -------------- --------------
    1 O                    8.0000    -0.09226396     0.00000000    -0.06587200
    2 H1                   1.0000    -0.09226396     0.00000000     0.90963800
    3 H2                   1.0000     0.83037567     0.00000000    -0.38266196

         Total SCF energy =    -76.054847044809

 Vector    2  Occ=2.000000D+00  E=-1.333204D+00

 Vector    3  Occ=2.000000D+00  E=-7.077850D-01

 Vector    4  Occ=2.000000D+00  E=-5.655597D-01

 Vector    5  Occ=2.000000D+00  E=-5.014628D-01

 Vector    6  Occ=0.000000D+00  E= 1.409093D-01

 Vector    7  Occ=0.000000D+00  E= 2.014959D-01

 Vector    8  Occ=0.000000D+00  E= 5.447481D-01

 Vector    9  Occ=0.000000D+00  E= 5.750592D-01

 Vector   10  Occ=0.000000D+00  E= 6.759945D-01

 Vector   11  Occ=0.000000D+00  E= 7.880725D-01

 Vector   12  Occ=0.000000D+00  E= 8.021529D-01

 Vector   13  Occ=0.000000D+00  E= 8.224630D-01

 Vector   14  Occ=0.000000D+00  E= 8.481234D-01

 Vector   15  Occ=0.000000D+00  E= 9.718941D-01

       Multipole analysis of the density wrt the origin
       ------------------------------------------------

     L   x y z        total         open         nuclear
     -   - - -        -----         ----         -------
     0   0 0 0     -0.000000      0.000000     10.000000

     1   1 0 0      0.629619      0.000000      0.000000
     1   0 1 0     -0.000000      0.000000      0.000000
     1   0 0 1      0.449518      0.000000      0.000000

     2   2 0 0     -4.031716      0.000000      2.735926
     2   1 1 0     -0.000000      0.000000      0.000000
     2   1 0 1     -0.801107      0.000000     -1.260797
     2   0 2 0     -5.457473      0.000000      0.000000
     2   0 1 1     -0.000000      0.000000      0.000000

 CCSD total energy / hartree       =       -76.336464944091546
 Total times  cpu:      647.9s     wall:      647.9s
