============================== echo of input deck ==============================
 echo
 start H2O
 title "H2O"

 memory total 24 gb

 geometry units angstrom
 symmetry c1
   zmatrix
     O
     H1 O 0.97551
     H2 O 0.97551 H1 108.65
   end
 end

 basis spherical
   * library cc-pVTZ
 end

 tce
   2eorb
   2emet 13
   ccsd
   maxiter 300
 end

# set tce:print_integrals T
# set tce:qorb 8
# set tce:qela 5
# set tce:qelb 5

 set tce:qducc T
 set tce:nactv 3
 set tce:nonhf T
 set tce:ducc_model 6

 set tce:printtol 0.02

 task tce
================================================================================

 Output coordinates in angstroms (scale by  1.889725989 to convert to a.u.)

  No.       Tag          Charge          X              Y              Z
 ---- ---------------- ---------- -------------- -------------- --------------
    1 O                    8.0000    -0.09242857     0.00000000    -0.06635553
    2 H1                   1.0000    -0.09242857     0.00000000     0.90915447
    3 H2                   1.0000     0.83185711     0.00000000    -0.37831024

         Total SCF energy =    -76.054909118958

 Vector    2  Occ=2.000000D+00  E=-1.333418D+00

 Vector    3  Occ=2.000000D+00  E=-7.072691D-01

 Vector    4  Occ=2.000000D+00  E=-5.661438D-01

 Vector    5  Occ=2.000000D+00  E=-5.015713D-01

 Vector    6  Occ=0.000000D+00  E= 1.408768D-01

 Vector    7  Occ=0.000000D+00  E= 2.015523D-01

 Vector    8  Occ=0.000000D+00  E= 5.441719D-01

 Vector    9  Occ=0.000000D+00  E= 5.761766D-01

 Vector   10  Occ=0.000000D+00  E= 6.756638D-01

 Vector   11  Occ=0.000000D+00  E= 7.880070D-01

 Vector   12  Occ=0.000000D+00  E= 8.023619D-01

 Vector   13  Occ=0.000000D+00  E= 8.206671D-01

 Vector   14  Occ=0.000000D+00  E= 8.487273D-01

 Vector   15  Occ=0.000000D+00  E= 9.706375D-01

       Multipole analysis of the density wrt the origin
       ------------------------------------------------

     L   x y z        total         open         nuclear
     -   - - -        -----         ----         -------
     0   0 0 0     -0.000000      0.000000     10.000000

     1   1 0 0      0.630059      0.000000      0.000000
     1   0 1 0      0.000000      0.000000      0.000000
     1   0 0 1      0.452326      0.000000     -0.000000

     2   2 0 0     -4.026706      0.000000      2.745697
     2   1 1 0      0.000000      0.000000      0.000000
     2   1 0 1     -0.794652      0.000000     -1.248682
     2   0 2 0     -5.457189      0.000000      0.000000
     2   0 1 1      0.000000      0.000000      0.000000

 CCSD total energy / hartree       =       -76.336545800533671
 Total times  cpu:      683.9s     wall:      683.9s
