============================== echo of input deck ==============================
 echo
 start H2O
 title "H2O"

 memory total 24 gb

 geometry units angstrom
 symmetry c1
   zmatrix
     O
     H1 O 0.97551
     H2 O 0.97551 H1 108.80
   end
 end

 basis spherical
   * library cc-pVTZ
 end

 tce
   2eorb
   2emet 13
   ccsd
   maxiter 300
 end

# set tce:print_integrals T
# set tce:qorb 8
# set tce:qela 5
# set tce:qelb 5

 set tce:qducc T
 set tce:nactv 3
 set tce:nonhf T
 set tce:ducc_model 6

 set tce:printtol 0.02

 task tce
================================================================================

 Output coordinates in angstroms (scale by  1.889725989 to convert to a.u.)

  No.       Tag          Charge          X              Y              Z
 ---- ---------------- ---------- -------------- -------------- --------------
    1 O                    8.0000    -0.09234658     0.00000000    -0.06611366
    2 H1                   1.0000    -0.09234658     0.00000000     0.90939634
    3 H2                   1.0000     0.83111924     0.00000000    -0.38048707

         Total SCF energy =    -76.054878635427

 Vector    2  Occ=2.000000D+00  E=-1.333311D+00

 Vector    3  Occ=2.000000D+00  E=-7.075274D-01

 Vector    4  Occ=2.000000D+00  E=-5.658517D-01

 Vector    5  Occ=2.000000D+00  E=-5.015171D-01

 Vector    6  Occ=0.000000D+00  E= 1.408932D-01

 Vector    7  Occ=0.000000D+00  E= 2.015241D-01

 Vector    8  Occ=0.000000D+00  E= 5.444594D-01

 Vector    9  Occ=0.000000D+00  E= 5.756180D-01

 Vector   10  Occ=0.000000D+00  E= 6.758282D-01

 Vector   11  Occ=0.000000D+00  E= 7.880398D-01

 Vector   12  Occ=0.000000D+00  E= 8.022577D-01

 Vector   13  Occ=0.000000D+00  E= 8.215632D-01

 Vector   14  Occ=0.000000D+00  E= 8.484251D-01

 Vector   15  Occ=0.000000D+00  E= 9.712658D-01

       Multipole analysis of the density wrt the origin
       ------------------------------------------------

     L   x y z        total         open         nuclear
     -   - - -        -----         ----         -------
     0   0 0 0     -0.000000      0.000000     10.000000

     1   1 0 0      0.629841      0.000000     -0.000000
     1   0 1 0     -0.000000      0.000000      0.000000
     1   0 0 1      0.450922      0.000000      0.000000

     2   2 0 0     -4.029202      0.000000      2.740828
     2   1 1 0     -0.000000      0.000000      0.000000
     2   1 0 1     -0.797887      0.000000     -1.254753
     2   0 2 0     -5.457331      0.000000      0.000000
     2   0 1 1     -0.000000      0.000000      0.000000

 CCSD total energy / hartree       =       -76.336505886143840
 Total times  cpu:      656.7s     wall:      656.7s
