============================== echo of input deck ==============================
 echo
 start H2O
 title "H2O"

 memory total 24 gb

 geometry units angstrom
 symmetry c1
   zmatrix
     O
     H1 O 0.97551
     H2 O 0.97551 H1 108.15
   end
 end

 basis spherical
   * library cc-pVTZ
 end

 tce
   2eorb
   2emet 13
   ccsd
   maxiter 300
 end

# set tce:print_integrals T
# set tce:qorb 8
# set tce:qela 5
# set tce:qelb 5

 set tce:qducc T
 set tce:nactv 3
 set tce:nonhf T
 set tce:ducc_model 6

 set tce:printtol 0.02

 task tce
================================================================================

 Output coordinates in angstroms (scale by  1.889725989 to convert to a.u.)

  No.       Tag          Charge          X              Y              Z
 ---- ---------------- ---------- -------------- -------------- --------------
    1 O                    8.0000    -0.09269728     0.00000000    -0.06716330
    2 H1                   1.0000    -0.09269728     0.00000000     0.90834670
    3 H2                   1.0000     0.83427549     0.00000000    -0.37104031

         Total SCF energy =    -76.055002695296

 Vector    2  Occ=2.000000D+00  E=-1.333776D+00

 Vector    3  Occ=2.000000D+00  E=-7.064038D-01

 Vector    4  Occ=2.000000D+00  E=-5.671185D-01

 Vector    5  Occ=2.000000D+00  E=-5.017514D-01

 Vector    6  Occ=0.000000D+00  E= 1.408200D-01

 Vector    7  Occ=0.000000D+00  E= 2.016464D-01

 Vector    8  Occ=0.000000D+00  E= 5.432206D-01

 Vector    9  Occ=0.000000D+00  E= 5.780365D-01

 Vector   10  Occ=0.000000D+00  E= 6.751291D-01

 Vector   11  Occ=0.000000D+00  E= 7.878979D-01

 Vector   12  Occ=0.000000D+00  E= 8.027061D-01

 Vector   13  Occ=0.000000D+00  E= 8.177078D-01

 Vector   14  Occ=0.000000D+00  E= 8.497388D-01

 Vector   15  Occ=0.000000D+00  E= 9.685436D-01

       Multipole analysis of the density wrt the origin
       ------------------------------------------------

     L   x y z        total         open         nuclear
     -   - - -        -----         ----         -------
     0   0 0 0     -0.000000      0.000000     10.000000

     1   1 0 0      0.630756      0.000000      0.000000
     1   0 1 0      0.000000      0.000000      0.000000
     1   0 0 1      0.457011      0.000000      0.000000

     2   2 0 0     -4.018516      0.000000      2.761685
     2   1 1 0      0.000000      0.000000      0.000000
     2   1 0 1     -0.783767      0.000000     -1.228247
     2   0 2 0     -5.456721      0.000000      0.000000
     2   0 1 1      0.000000      0.000000      0.000000

 CCSD total energy / hartree       =       -76.336671387595686
 Total times  cpu:      642.8s     wall:      642.8s
