============================== echo of input deck ==============================
 echo
 start H2O
 title "H2O"

 memory total 24 gb

 geometry units angstrom
 symmetry c1
   zmatrix
     O
     H1 O 0.97551
     H2 O 0.97551 H1 108.45
   end
 end

 basis spherical
   * library cc-pVTZ
 end

 tce
   2eorb
   2emet 13
   ccsd
   maxiter 300
 end

# set tce:print_integrals T
# set tce:qorb 8
# set tce:qela 5
# set tce:qelb 5

 set tce:qducc T
 set tce:nactv 3
 set tce:nonhf T
 set tce:ducc_model 6

 set tce:printtol 0.02

 task tce
================================================================================

 Output coordinates in angstroms (scale by  1.889725989 to convert to a.u.)

  No.       Tag          Charge          X              Y              Z
 ---- ---------------- ---------- -------------- -------------- --------------
    1 O                    8.0000    -0.09253690     0.00000000    -0.06667836
    2 H1                   1.0000    -0.09253690     0.00000000     0.90883164
    3 H2                   1.0000     0.83283208     0.00000000    -0.37540480

         Total SCF energy =    -76.054948036186

 Vector    2  Occ=2.000000D+00  E=-1.333561D+00

 Vector    3  Occ=2.000000D+00  E=-7.069238D-01

 Vector    4  Occ=2.000000D+00  E=-5.665335D-01

 Vector    5  Occ=2.000000D+00  E=-5.016434D-01

 Vector    6  Occ=0.000000D+00  E= 1.408545D-01

 Vector    7  Occ=0.000000D+00  E= 2.015899D-01

 Vector    8  Occ=0.000000D+00  E= 5.437900D-01

 Vector    9  Occ=0.000000D+00  E= 5.769210D-01

 Vector   10  Occ=0.000000D+00  E= 6.754474D-01

 Vector   11  Occ=0.000000D+00  E= 7.879634D-01

 Vector   12  Occ=0.000000D+00  E= 8.025002D-01

 Vector   13  Occ=0.000000D+00  E= 8.194782D-01

 Vector   14  Occ=0.000000D+00  E= 8.491312D-01

 Vector   15  Occ=0.000000D+00  E= 9.697998D-01

       Multipole analysis of the density wrt the origin
       ------------------------------------------------

     L   x y z        total         open         nuclear
     -   - - -        -----         ----         -------
     0   0 0 0     -0.000000      0.000000     10.000000

     1   1 0 0      0.630343      0.000000      0.000000
     1   0 1 0     -0.000000      0.000000      0.000000
     1   0 0 1      0.454200      0.000000      0.000000

     2   2 0 0     -4.023406      0.000000      2.752137
     2   1 1 0     -0.000000      0.000000      0.000000
     2   1 0 1     -0.790316      0.000000     -1.240545
     2   0 2 0     -5.457001      0.000000      0.000000
     2   0 1 1     -0.000000      0.000000      0.000000

 CCSD total energy / hartree       =       -76.336597415916614
 Total times  cpu:      654.4s     wall:      654.4s
