============================== echo of input deck ==============================
 echo
 start H2O
 title "H2O"

 memory total 24 gb

 geometry units angstrom
 symmetry c1
   zmatrix
     O
     H1 O 0.97551
     H2 O 0.97551 H1 108.35
   end
 end

 basis spherical
   * library cc-pVTZ
 end

 tce
   2eorb
   2emet 13
   ccsd
   maxiter 300
 end

# set tce:print_integrals T
# set tce:qorb 8
# set tce:qela 5
# set tce:qelb 5

 set tce:qducc T
 set tce:nactv 3
 set tce:nonhf T
 set tce:ducc_model 6

 set tce:printtol 0.02

 task tce
================================================================================

 Output coordinates in angstroms (scale by  1.889725989 to convert to a.u.)

  No.       Tag          Charge          X              Y              Z
 ---- ---------------- ---------- -------------- -------------- --------------
    1 O                    8.0000    -0.09259064     0.00000000    -0.06683991
    2 H1                   1.0000    -0.09259064     0.00000000     0.90867009
    3 H2                   1.0000     0.83331576     0.00000000    -0.37395081

         Total SCF energy =    -76.054966752332

 Vector    2  Occ=2.000000D+00  E=-1.333633D+00

 Vector    3  Occ=2.000000D+00  E=-7.067507D-01

 Vector    4  Occ=2.000000D+00  E=-5.667284D-01

 Vector    5  Occ=2.000000D+00  E=-5.016794D-01

 Vector    6  Occ=0.000000D+00  E= 1.408431D-01

 Vector    7  Occ=0.000000D+00  E= 2.016088D-01

 Vector    8  Occ=0.000000D+00  E= 5.435998D-01

 Vector    9  Occ=0.000000D+00  E= 5.772930D-01

 Vector   10  Occ=0.000000D+00  E= 6.753405D-01

 Vector   11  Occ=0.000000D+00  E= 7.879416D-01

 Vector   12  Occ=0.000000D+00  E= 8.025690D-01

 Vector   13  Occ=0.000000D+00  E= 8.188863D-01

 Vector   14  Occ=0.000000D+00  E= 8.493335D-01

 Vector   15  Occ=0.000000D+00  E= 9.693811D-01

       Multipole analysis of the density wrt the origin
       ------------------------------------------------

     L   x y z        total         open         nuclear
     -   - - -        -----         ----         -------
     0   0 0 0     -0.000000      0.000000     10.000000

     1   1 0 0      0.630482      0.000000      0.000000
     1   0 1 0     -0.000000      0.000000      0.000000
     1   0 0 1      0.455136      0.000000      0.000000

     2   2 0 0     -4.021768      0.000000      2.755335
     2   1 1 0     -0.000000      0.000000      0.000000
     2   1 0 1     -0.788139      0.000000     -1.236458
     2   0 2 0     -5.456907      0.000000      0.000000
     2   0 1 1     -0.000000      0.000000      0.000000

 CCSD total energy / hartree       =       -76.336622534187356
 Total times  cpu:      678.6s     wall:      678.6s
