============================== echo of input deck ==============================
 echo
 start H2O
 title "H2O"

 memory total 24 gb

 geometry units angstrom
 symmetry c1
   zmatrix
     O
     H1 O 0.97551
     H2 O 0.97551 H1 109.45
   end
 end

 basis spherical
   * library cc-pVTZ
 end

 tce
   2eorb
   2emet 13
   ccsd
   maxiter 300
 end

# set tce:print_integrals T
# set tce:qorb 8
# set tce:qela 5
# set tce:qelb 5

 set tce:qducc T
 set tce:nactv 3
 set tce:nonhf T
 set tce:ducc_model 6

 set tce:printtol 0.02

 task tce
================================================================================

 Output coordinates in angstroms (scale by  1.889725989 to convert to a.u.)

  No.       Tag          Charge          X              Y              Z
 ---- ---------------- ---------- -------------- -------------- --------------
    1 O                    8.0000    -0.09198400     0.00000000    -0.06506807
    2 H1                   1.0000    -0.09198400     0.00000000     0.91044193
    3 H2                   1.0000     0.82785602     0.00000000    -0.38989741

         Total SCF energy =    -76.054733787406

 Vector    2  Occ=2.000000D+00  E=-1.332847D+00

 Vector    3  Occ=2.000000D+00  E=-7.086391D-01

 Vector    4  Occ=2.000000D+00  E=-5.645874D-01

 Vector    5  Occ=2.000000D+00  E=-5.012812D-01

 Vector    6  Occ=0.000000D+00  E= 1.409610D-01

 Vector    7  Occ=0.000000D+00  E= 2.014019D-01

 Vector    8  Occ=0.000000D+00  E= 5.457174D-01

 Vector    9  Occ=0.000000D+00  E= 5.731954D-01

 Vector   10  Occ=0.000000D+00  E= 6.765624D-01

 Vector   11  Occ=0.000000D+00  E= 7.881817D-01

 Vector   12  Occ=0.000000D+00  E= 8.018004D-01

 Vector   13  Occ=0.000000D+00  E= 8.254890D-01

 Vector   14  Occ=0.000000D+00  E= 8.471219D-01

 Vector   15  Occ=0.000000D+00  E= 9.739887D-01

       Multipole analysis of the density wrt the origin
       ------------------------------------------------

     L   x y z        total         open         nuclear
     -   - - -        -----         ----         -------
     0   0 0 0     -0.000000      0.000000     10.000000

     1   1 0 0      0.628851      0.000000     -0.000000
     1   0 1 0     -0.000000      0.000000      0.000000
     1   0 0 1      0.444839      0.000000      0.000000

     2   2 0 0     -4.040225      0.000000      2.719348
     2   1 1 0     -0.000000      0.000000      0.000000
     2   1 0 1     -0.811739      0.000000     -1.280738
     2   0 2 0     -5.457950      0.000000      0.000000
     2   0 1 1     -0.000000      0.000000      0.000000

 CCSD total energy / hartree       =       -76.336321087911074
 Total times  cpu:      656.2s     wall:      656.2s
