============================== echo of input deck ==============================
 echo
 start H2O
 title "H2O"

 memory total 24 gb

 geometry units angstrom
 symmetry c1
   zmatrix
     O
     H1 O 0.97551
     H2 O 0.97551 H1 109.85
   end
 end

 basis spherical
   * library cc-pVTZ
 end

 tce
   2eorb
   2emet 13
   ccsd
   maxiter 300
 end

# set tce:print_integrals T
# set tce:qorb 8
# set tce:qela 5
# set tce:qelb 5

 set tce:qducc T
 set tce:nactv 3
 set tce:nonhf T
 set tce:ducc_model 6

 set tce:printtol 0.02

 task tce
================================================================================

 Output coordinates in angstroms (scale by  1.889725989 to convert to a.u.)

  No.       Tag          Charge          X              Y              Z
 ---- ---------------- ---------- -------------- -------------- --------------
    1 O                    8.0000    -0.09175499     0.00000000    -0.06442669
    2 H1                   1.0000    -0.09175499     0.00000000     0.91108331
    3 H2                   1.0000     0.82579490     0.00000000    -0.39566976

         Total SCF energy =    -76.054634428359

 Vector    2  Occ=2.000000D+00  E=-1.332563D+00

 Vector    3  Occ=2.000000D+00  E=-7.093173D-01

 Vector    4  Occ=2.000000D+00  E=-5.638107D-01

 Vector    5  Occ=2.000000D+00  E=-5.011352D-01

 Vector    6  Occ=0.000000D+00  E= 1.410001D-01

 Vector    7  Occ=0.000000D+00  E= 2.013268D-01

 Vector    8  Occ=0.000000D+00  E= 5.465010D-01

 Vector    9  Occ=0.000000D+00  E= 5.717035D-01

 Vector   10  Occ=0.000000D+00  E= 6.770318D-01

 Vector   11  Occ=0.000000D+00  E= 7.882691D-01

 Vector   12  Occ=0.000000D+00  E= 8.015145D-01

 Vector   13  Occ=0.000000D+00  E= 8.279381D-01

 Vector   14  Occ=0.000000D+00  E= 8.463252D-01

 Vector   15  Occ=0.000000D+00  E= 9.756642D-01

       Multipole analysis of the density wrt the origin
       ------------------------------------------------

     L   x y z        total         open         nuclear
     -   - - -        -----         ----         -------
     0   0 0 0     -0.000000      0.000000     10.000000

     1   1 0 0      0.628204      0.000000      0.000000
     1   0 1 0     -0.000000      0.000000      0.000000
     1   0 0 1      0.441100      0.000000      0.000000

     2   2 0 0     -4.047173      0.000000      2.705824
     2   1 1 0     -0.000000      0.000000      0.000000
     2   1 0 1     -0.820127      0.000000     -1.296463
     2   0 2 0     -5.458337      0.000000      0.000000
     2   0 1 1     -0.000000      0.000000      0.000000

 CCSD total energy / hartree       =       -76.336197882703232
 Total times  cpu:      648.4s     wall:      648.4s
