============================== echo of input deck ==============================
 echo
 start H2O
 title "H2O"

 memory total 24 gb

 geometry units angstrom
 symmetry c1
   zmatrix
     O
     H1 O 0.97551
     H2 O 0.97551 H1 109.80
   end
 end

 basis spherical
   * library cc-pVTZ
 end

 tce
   2eorb
   2emet 13
   ccsd
   maxiter 300
 end

# set tce:print_integrals T
# set tce:qorb 8
# set tce:qela 5
# set tce:qelb 5

 set tce:qducc T
 set tce:nactv 3
 set tce:nonhf T
 set tce:ducc_model 6

 set tce:printtol 0.02

 task tce
================================================================================

 Output coordinates in angstroms (scale by  1.889725989 to convert to a.u.)

  No.       Tag          Charge          X              Y              Z
 ---- ---------------- ---------- -------------- -------------- --------------
    1 O                    8.0000    -0.09178386     0.00000000    -0.06450678
    2 H1                   1.0000    -0.09178386     0.00000000     0.91100322
    3 H2                   1.0000     0.82605474     0.00000000    -0.39494901

         Total SCF energy =    -76.054647271409

 Vector    2  Occ=2.000000D+00  E=-1.332599D+00

 Vector    3  Occ=2.000000D+00  E=-7.092328D-01

 Vector    4  Occ=2.000000D+00  E=-5.639077D-01

 Vector    5  Occ=2.000000D+00  E=-5.011535D-01

 Vector    6  Occ=0.000000D+00  E= 1.409953D-01

 Vector    7  Occ=0.000000D+00  E= 2.013362D-01

 Vector    8  Occ=0.000000D+00  E= 5.464026D-01

 Vector    9  Occ=0.000000D+00  E= 5.718900D-01

 Vector   10  Occ=0.000000D+00  E= 6.769724D-01

 Vector   11  Occ=0.000000D+00  E= 7.882582D-01

 Vector   12  Occ=0.000000D+00  E= 8.015504D-01

 Vector   13  Occ=0.000000D+00  E= 8.276306D-01

 Vector   14  Occ=0.000000D+00  E= 8.464245D-01

 Vector   15  Occ=0.000000D+00  E= 9.754548D-01

       Multipole analysis of the density wrt the origin
       ------------------------------------------------

     L   x y z        total         open         nuclear
     -   - - -        -----         ----         -------
     0   0 0 0      0.000000      0.000000     10.000000

     1   1 0 0      0.628286      0.000000      0.000000
     1   0 1 0      0.000000      0.000000      0.000000
     1   0 0 1      0.441567      0.000000     -0.000000

     2   2 0 0     -4.046298      0.000000      2.707527
     2   1 1 0     -0.000000      0.000000      0.000000
     2   1 0 1     -0.819084      0.000000     -1.294509
     2   0 2 0     -5.458288      0.000000      0.000000
     2   0 1 1      0.000000      0.000000      0.000000

 CCSD total energy / hartree       =       -76.336213675818939
 Total times  cpu:      649.7s     wall:      649.7s
