============================== echo of input deck ==============================
 echo
 start H2O
 title "H2O"

 memory total 24 gb

 geometry units angstrom
 symmetry c1
   zmatrix
     O
     H1 O 0.97551
     H2 O 0.97551 H1 109.20
   end
 end

 basis spherical
   * library cc-pVTZ
 end

 tce
   2eorb
   2emet 13
   ccsd
   maxiter 300
 end

# set tce:print_integrals T
# set tce:qorb 8
# set tce:qela 5
# set tce:qelb 5

 set tce:qducc T
 set tce:nactv 3
 set tce:nonhf T
 set tce:ducc_model 6

 set tce:printtol 0.02

 task tce
================================================================================

 Output coordinates in angstroms (scale by  1.889725989 to convert to a.u.)

  No.       Tag          Charge          X              Y              Z
 ---- ---------------- ---------- -------------- -------------- --------------
    1 O                    8.0000    -0.09212486     0.00000000    -0.06546973
    2 H1                   1.0000    -0.09212486     0.00000000     0.91004027
    3 H2                   1.0000     0.82912373     0.00000000    -0.38628243

         Total SCF energy =    -76.054791942110

 Vector    2  Occ=2.000000D+00  E=-1.333025D+00

 Vector    3  Occ=2.000000D+00  E=-7.082129D-01

 Vector    4  Occ=2.000000D+00  E=-5.650733D-01

 Vector    5  Occ=2.000000D+00  E=-5.013721D-01

 Vector    6  Occ=0.000000D+00  E= 1.409356D-01

 Vector    7  Occ=0.000000D+00  E= 2.014489D-01

 Vector    8  Occ=0.000000D+00  E= 5.452313D-01

 Vector    9  Occ=0.000000D+00  E= 5.741275D-01

 Vector   10  Occ=0.000000D+00  E= 6.762758D-01

 Vector   11  Occ=0.000000D+00  E= 7.881271D-01

 Vector   12  Occ=0.000000D+00  E= 8.019774D-01

 Vector   13  Occ=0.000000D+00  E= 8.239710D-01

 Vector   14  Occ=0.000000D+00  E= 8.476219D-01

 Vector   15  Occ=0.000000D+00  E= 9.729414D-01

       Multipole analysis of the density wrt the origin
       ------------------------------------------------

     L   x y z        total         open         nuclear
     -   - - -        -----         ----         -------
     0   0 0 0     -0.000000      0.000000     10.000000

     1   1 0 0      0.629241      0.000000     -0.000000
     1   0 1 0      0.000000      0.000000      0.000000
     1   0 0 1      0.447178      0.000000      0.000000

     2   2 0 0     -4.035946      0.000000      2.727683
     2   1 1 0      0.000000      0.000000      0.000000
     2   1 0 1     -0.806443      0.000000     -1.270807
     2   0 2 0     -5.457711      0.000000      0.000000
     2   0 1 1      0.000000      0.000000      0.000000

 CCSD total energy / hartree       =       -76.336394431969055
 Total times  cpu:      655.7s     wall:      655.7s
