============================== echo of input deck ==============================
 echo
 start H2
 title "H2"

 memory total 24 gb

 geometry units bohr
 symmetry c1
        H  0.00000000  0.00000000  0.00000000
        H  0.00000000  4.45  0.00000000
 end

 basis
   * library cc-pVQZ
 end

 mcscf
   active  10
   actelec 2
   multiplicity 1
   maxiter 40
   vectors input H2.mos
   vectors output H2.mos
 end

 task mcscf

 scf
   vectors input H2.mos
   vectors output H2-4.45.mos
   noscf
 end

 tce
   2eorb
   2emet 13
   ccsd
   maxiter 300
 end

 set tce:print_integrals T
 set tce:qorb 10
 set tce:qela 1
 set tce:qelb 1

# set tce:qducc T
# set tce:nactv 1
# set tce:nonhf T
# set tce:ducc_model 6

 set tce:printtol 0.02

 task tce
================================================================================

 Output coordinates in a.u. (scale by  1.000000000 to convert to a.u.)

  No.       Tag          Charge          X              Y              Z
 ---- ---------------- ---------- -------------- -------------- --------------
    1 H                    1.0000     0.00000000    -2.22500000     0.00000000
    2 H                    1.0000     0.00000000     2.22500000     0.00000000

 Vector    1  Occ=1.385685D+00  E=-3.322019D-01  Symmetry=a

 Vector    2  Occ=6.123068D-01  E=-1.669191D-01  Symmetry=a

 Vector    3  Occ=9.929699D-04  E=-5.258467D-04  Symmetry=a

 Vector    4  Occ=4.679676D-04  E=-2.632981D-04  Symmetry=a

 Vector    5  Occ=4.679676D-04  E=-2.632981D-04  Symmetry=a

 Vector    6  Occ=3.704913D-05  E=-2.354716D-05  Symmetry=a

 Vector    7  Occ=1.352440D-05  E=-1.113844D-05  Symmetry=a

 Vector    8  Occ=1.352440D-05  E=-1.113844D-05  Symmetry=a

 Vector    9  Occ=1.058259D-05  E=-9.598500D-06  Symmetry=a

 Vector   10  Occ=4.141109D-06  E=-5.255017D-06  Symmetry=a

 Vector   11  Occ=0.000000D+00  E= 4.634625D-01  Symmetry=a

 Vector   12  Occ=0.000000D+00  E= 8.047863D-01  Symmetry=a

 Vector   13  Occ=0.000000D+00  E= 8.637891D-01  Symmetry=a

 Vector   14  Occ=0.000000D+00  E= 1.329154D+00  Symmetry=a

 Vector   15  Occ=0.000000D+00  E= 1.329154D+00  Symmetry=a

 Vector   16  Occ=0.000000D+00  E= 1.683910D+00  Symmetry=a

 Vector   17  Occ=0.000000D+00  E= 1.798883D+00  Symmetry=a

 Vector   18  Occ=0.000000D+00  E= 1.798883D+00  Symmetry=a

 Vector   19  Occ=0.000000D+00  E= 1.969158D+00  Symmetry=a

 Vector   20  Occ=0.000000D+00  E= 1.969158D+00  Symmetry=a

         Total SCF energy =     -0.868525344629

 Vector    1  Occ=2.000000D+00  E=-3.322019D-01

 Vector    2  Occ=0.000000D+00  E=-1.669191D-01

 Vector    3  Occ=0.000000D+00  E=-5.258467D-04

 Vector    4  Occ=0.000000D+00  E=-2.632981D-04

 Vector    5  Occ=0.000000D+00  E=-2.632981D-04

 Vector    6  Occ=0.000000D+00  E=-2.354716D-05

 Vector    7  Occ=0.000000D+00  E=-1.113844D-05

 Vector    8  Occ=0.000000D+00  E=-1.113844D-05

 Vector    9  Occ=0.000000D+00  E=-9.598500D-06

 Vector   10  Occ=0.000000D+00  E=-5.255017D-06

 Vector   11  Occ=0.000000D+00  E= 4.634625D-01

 Vector   12  Occ=0.000000D+00  E= 8.047863D-01

       Multipole analysis of the density wrt the origin
       ------------------------------------------------

     L   x y z        total         open         nuclear
     -   - - -        -----         ----         -------
     0   0 0 0     -0.000000      0.000000      2.000000

     1   1 0 0     -0.000000      0.000000      0.000000
     1   0 1 0     -0.000000      0.000000      0.000000
     1   0 0 1      0.000000      0.000000      0.000000

     2   2 0 0     -2.200131      0.000000      0.000000
     2   1 1 0     -0.000000      0.000000      0.000000
     2   1 0 1      0.000000      0.000000      0.000000
     2   0 2 0     -1.054173      0.000000      9.901250
     2   0 1 1      0.000000      0.000000      0.000000

 CCSD total energy / hartree       =        -1.008026557241188
 Total times  cpu:       17.8s     wall:       22.7s
