============================== echo of input deck ==============================
 echo
 start H2
 title "H2"

 memory total 24 gb

 geometry units bohr
 symmetry c1
        H  0.00000000  0.00000000  0.00000000
        H  0.00000000  6.60  0.00000000
 end

 basis
   * library cc-pVQZ
 end

 mcscf
   active  10
   actelec 2
   multiplicity 1
   maxiter 40
   vectors input H2.mos
   vectors output H2.mos
 end

 task mcscf

 scf
   vectors input H2.mos
   vectors output H2-6.60.mos
   noscf
 end

 tce
   2eorb
   2emet 13
   ccsd
   maxiter 300
   lshift 0.4
 end

 set tce:print_integrals T
 set tce:qorb 10
 set tce:qela 1
 set tce:qelb 1

# set tce:qducc T
# set tce:nactv 1
# set tce:nonhf T
# set tce:ducc_model 6

 set tce:printtol 0.02

 task tce
================================================================================

 Output coordinates in a.u. (scale by  1.000000000 to convert to a.u.)

  No.       Tag          Charge          X              Y              Z
 ---- ---------------- ---------- -------------- -------------- --------------
    1 H                    1.0000     0.00000000    -3.30000000     0.00000000
    2 H                    1.0000     0.00000000     3.30000000     0.00000000

 Vector    1  Occ=1.074719D+00  E=-2.657564D-01  Symmetry=a

 Vector    2  Occ=9.251786D-01  E=-2.341511D-01  Symmetry=a

 Vector    3  Occ=6.752109D-05  E=-3.624509D-05  Symmetry=a

 Vector    4  Occ=1.731837D-05  E=-9.904195D-06  Symmetry=a

 Vector    5  Occ=1.731837D-05  E=-9.904195D-06  Symmetry=a

 Vector    6  Occ=2.474614D-07  E=-1.705188D-07  Symmetry=a

 Vector    7  Occ=1.120872D-07  E=-1.043361D-07  Symmetry=a

 Vector    8  Occ=4.905524D-08  E=-5.845424D-08  Symmetry=a

 Vector    9  Occ=4.003589D-09  E=-3.440119D-09  Symmetry=a

 Vector   10  Occ=4.003589D-09  E=-3.440119D-09  Symmetry=a

 Vector   11  Occ=0.000000D+00  E= 4.207869D-01  Symmetry=a

 Vector   12  Occ=0.000000D+00  E= 6.264418D-01  Symmetry=a

 Vector   13  Occ=0.000000D+00  E= 8.341444D-01  Symmetry=a

 Vector   14  Occ=0.000000D+00  E= 1.136939D+00  Symmetry=a

 Vector   15  Occ=0.000000D+00  E= 1.136939D+00  Symmetry=a

 Vector   16  Occ=0.000000D+00  E= 1.763426D+00  Symmetry=a

 Vector   17  Occ=0.000000D+00  E= 1.829642D+00  Symmetry=a

 Vector   18  Occ=0.000000D+00  E= 1.829642D+00  Symmetry=a

 Vector   19  Occ=0.000000D+00  E= 1.889595D+00  Symmetry=a

 Vector   20  Occ=0.000000D+00  E= 2.047325D+00  Symmetry=a

         Total SCF energy =     -0.779729998508

 Vector    1  Occ=2.000000D+00  E=-2.657564D-01

 Vector    2  Occ=0.000000D+00  E=-2.341511D-01

 Vector    3  Occ=0.000000D+00  E=-3.624509D-05

 Vector    4  Occ=0.000000D+00  E=-9.904195D-06

 Vector    5  Occ=0.000000D+00  E=-9.904195D-06

 Vector    6  Occ=0.000000D+00  E=-1.705188D-07

 Vector    7  Occ=0.000000D+00  E=-1.043361D-07

 Vector    8  Occ=0.000000D+00  E=-5.845424D-08

 Vector    9  Occ=0.000000D+00  E=-3.440119D-09

 Vector   10  Occ=0.000000D+00  E=-3.440119D-09

 Vector   11  Occ=0.000000D+00  E= 4.207869D-01

 Vector   12  Occ=0.000000D+00  E= 6.264418D-01

       Multipole analysis of the density wrt the origin
       ------------------------------------------------

     L   x y z        total         open         nuclear
     -   - - -        -----         ----         -------
     0   0 0 0     -0.000000      0.000000      2.000000

     1   1 0 0     -0.000000      0.000000      0.000000
     1   0 1 0     -0.000000      0.000000      0.000000
     1   0 0 1      0.000000      0.000000      0.000000

     2   2 0 0     -2.063291      0.000000      0.000000
     2   1 1 0     -0.000000      0.000000      0.000000
     2   1 0 1      0.000000      0.000000      0.000000
     2   0 2 0     -1.552796      0.000000     21.780000
     2   0 1 1      0.000000      0.000000      0.000000

 CCSD total energy / hartree       =        -1.000165576541731
 Total times  cpu:       24.3s     wall:       30.9s
