============================== echo of input deck ==============================
 echo
 start H2
 title "H2"

 memory total 24 gb

 geometry units bohr
 symmetry c1
        H  0.00000000  0.00000000  0.00000000
        H  0.00000000  6.95  0.00000000
 end

 basis
   * library cc-pVQZ
 end

 mcscf
   active  10
   actelec 2
   multiplicity 1
   maxiter 40
   vectors input H2.mos
   vectors output H2.mos
 end

 task mcscf

 scf
   vectors input H2.mos
   vectors output H2-6.95.mos
   noscf
 end

 tce
   2eorb
   2emet 13
   ccsd
   maxiter 300
   lshift 0.4
 end

 set tce:print_integrals T
 set tce:qorb 10
 set tce:qela 1
 set tce:qelb 1

# set tce:qducc T
# set tce:nactv 1
# set tce:nonhf T
# set tce:ducc_model 6

 set tce:printtol 0.02

 task tce
================================================================================

 Output coordinates in a.u. (scale by  1.000000000 to convert to a.u.)

  No.       Tag          Charge          X              Y              Z
 ---- ---------------- ---------- -------------- -------------- --------------
    1 H                    1.0000     0.00000000    -3.47500000     0.00000000
    2 H                    1.0000     0.00000000     3.47500000     0.00000000

 Vector    1  Occ=1.056433D+00  E=-2.619317D-01  Symmetry=a

 Vector    2  Occ=9.435017D-01  E=-2.379910D-01  Symmetry=a

 Vector    3  Occ=4.333200D-05  E=-2.350140D-05  Symmetry=a

 Vector    4  Occ=1.079489D-05  E=-6.173333D-06  Symmetry=a

 Vector    5  Occ=1.079489D-05  E=-6.173333D-06  Symmetry=a

 Vector    6  Occ=1.037217D-07  E=-7.293153D-08  Symmetry=a

 Vector    7  Occ=5.374459D-08  E=-4.972215D-08  Symmetry=a

 Vector    8  Occ=2.828856D-08  E=-2.594526D-08  Symmetry=a

 Vector    9  Occ=2.828856D-08  E=-2.574356D-08  Symmetry=a

 Vector   10  Occ=2.211577D-08  E=-2.574356D-08  Symmetry=a

 Vector   11  Occ=0.000000D+00  E= 4.195185D-01  Symmetry=a

 Vector   12  Occ=0.000000D+00  E= 6.147144D-01  Symmetry=a

 Vector   13  Occ=0.000000D+00  E= 8.327724D-01  Symmetry=a

 Vector   14  Occ=0.000000D+00  E= 1.135544D+00  Symmetry=a

 Vector   15  Occ=0.000000D+00  E= 1.135544D+00  Symmetry=a

 Vector   16  Occ=0.000000D+00  E= 1.758642D+00  Symmetry=a

 Vector   17  Occ=0.000000D+00  E= 1.834253D+00  Symmetry=a

 Vector   18  Occ=0.000000D+00  E= 1.834253D+00  Symmetry=a

 Vector   19  Occ=0.000000D+00  E= 1.906273D+00  Symmetry=a

 Vector   20  Occ=0.000000D+00  E= 2.049702D+00  Symmetry=a

         Total SCF energy =     -0.772137097395

 Vector    1  Occ=2.000000D+00  E=-2.619317D-01

 Vector    2  Occ=0.000000D+00  E=-2.379910D-01

 Vector    3  Occ=0.000000D+00  E=-2.350140D-05

 Vector    4  Occ=0.000000D+00  E=-6.173333D-06

 Vector    5  Occ=0.000000D+00  E=-6.173333D-06

 Vector    6  Occ=0.000000D+00  E=-7.293153D-08

 Vector    7  Occ=0.000000D+00  E=-4.972215D-08

 Vector    8  Occ=0.000000D+00  E=-2.594526D-08

 Vector    9  Occ=0.000000D+00  E=-2.574356D-08

 Vector   10  Occ=0.000000D+00  E=-2.574356D-08

 Vector   11  Occ=0.000000D+00  E= 4.195185D-01

 Vector   12  Occ=0.000000D+00  E= 6.147144D-01

       Multipole analysis of the density wrt the origin
       ------------------------------------------------

     L   x y z        total         open         nuclear
     -   - - -        -----         ----         -------
     0   0 0 0     -0.000000      0.000000      2.000000

     1   1 0 0     -0.000000      0.000000      0.000000
     1   0 1 0     -0.000000      0.000000      0.000000
     1   0 0 1      0.000000      0.000000      0.000000

     2   2 0 0     -2.049902      0.000000      0.000000
     2   1 1 0     -0.000000      0.000000      0.000000
     2   1 0 1      0.000000      0.000000      0.000000
     2   0 2 0     -1.618925      0.000000     24.151250
     2   0 1 1      0.000000      0.000000      0.000000

 CCSD total energy / hartree       =        -1.000049395597611
 Total times  cpu:       21.4s     wall:       26.9s
