============================== echo of input deck ==============================
 echo
 start H2O
 title "H2O"

 memory total 24 gb

 geometry units bohr
 symmetry c1
        O  0.00000000  0.00000000  0.00000000
        H  0.00000000  1.659105  0.00000000
        H  1.72558000 -0.64860000  0.00000000
 end

 basis spherical
   * library cc-pVTZ
 end

 mcscf
   active  8
   actelec 10
   multiplicity 1
   maxiter 40
   vectors input h2o.mos
   vectors output h2o.mos
 end

 task mcscf

 scf
   vectors input h2o.mos
   vectors output h2o-trash.mos
   noscf
 end

 tce
   2eorb
   2emet 13
   ccsd
 end

# set tce:print_integrals T
# set tce:qorb
# set tce:qela
# set tce:qelb

# set tce:qducc T
# set tce:nactv
# set tce:nonhf F
# set tce:ducc_model 3

 set tce:printtol 0.02

 task tce

 tce
   2eorb
   2emet 13
   ccsd
   freeze virtual 50
 end

 set tce:printtol 0.02

 task tce
================================================================================

 Output coordinates in a.u. (scale by  1.000000000 to convert to a.u.)

  No.       Tag          Charge          X              Y              Z
 ---- ---------------- ---------- -------------- -------------- --------------
    1 O                    8.0000    -0.17255800    -0.10105050     0.00000000
    2 H                    1.0000    -0.17255800     1.55805450     0.00000000
    3 H                    1.0000     1.55302200    -0.74965050     0.00000000

 Vector    1  Occ=1.999988D+00  E=-2.053586D+01  Symmetry=a

 Vector    2  Occ=1.999077D+00  E=-1.369587D+00  Symmetry=a

 Vector    3  Occ=1.983072D+00  E=-7.637081D-01  Symmetry=a

 Vector    4  Occ=1.981881D+00  E=-5.892923D-01  Symmetry=a

 Vector    5  Occ=1.977499D+00  E=-5.283325D-01  Symmetry=a

 Vector    6  Occ=2.319881D-02  E=-2.562801D-02  Symmetry=a

 Vector    7  Occ=1.861465D-02  E=-2.184541D-02  Symmetry=a

 Vector    8  Occ=1.667006D-02  E=-1.600785D-02  Symmetry=a

 Vector    9  Occ=0.000000D+00  E= 2.849457D-01  Symmetry=a

 Vector   10  Occ=0.000000D+00  E= 3.353545D-01  Symmetry=a

 Vector   11  Occ=0.000000D+00  E= 6.143029D-01  Symmetry=a

 Vector   12  Occ=0.000000D+00  E= 6.529506D-01  Symmetry=a

 Vector   13  Occ=0.000000D+00  E= 8.096494D-01  Symmetry=a

 Vector   14  Occ=0.000000D+00  E= 8.528869D-01  Symmetry=a

 Vector   15  Occ=0.000000D+00  E= 9.740102D-01  Symmetry=a

 Vector   16  Occ=0.000000D+00  E= 1.093104D+00  Symmetry=a

 Vector   17  Occ=0.000000D+00  E= 1.196426D+00  Symmetry=a

 Vector   18  Occ=0.000000D+00  E= 1.375134D+00  Symmetry=a

         Total SCF energy =    -76.049882263348

 Vector    2  Occ=2.000000D+00  E=-1.369587D+00

 Vector    3  Occ=2.000000D+00  E=-7.637081D-01

 Vector    4  Occ=2.000000D+00  E=-5.892923D-01

 Vector    5  Occ=2.000000D+00  E=-5.283325D-01

 Vector    6  Occ=0.000000D+00  E=-2.562801D-02

 Vector    7  Occ=0.000000D+00  E=-2.184541D-02

 Vector    8  Occ=0.000000D+00  E=-1.600785D-02

 Vector    9  Occ=0.000000D+00  E= 2.849457D-01

 Vector   10  Occ=0.000000D+00  E= 3.353545D-01

 Vector   11  Occ=0.000000D+00  E= 6.143029D-01

 Vector   12  Occ=0.000000D+00  E= 6.529506D-01

 Vector   13  Occ=0.000000D+00  E= 8.096494D-01

 Vector   14  Occ=0.000000D+00  E= 8.528869D-01

 Vector   15  Occ=0.000000D+00  E= 9.740102D-01

       Multipole analysis of the density wrt the origin
       ------------------------------------------------

     L   x y z        total         open         nuclear
     -   - - -        -----         ----         -------
     0   0 0 0     -0.000000      0.000000     10.000000

     1   1 0 0      0.600783      0.000000     -0.000000
     1   0 1 0      0.375641      0.000000     -0.000000
     1   0 0 1      0.000002      0.000000      0.000000

     2   2 0 0     -4.025411      0.000000      2.679864
     2   1 1 0     -0.797585      0.000000     -1.293582
     2   1 0 1      0.000000      0.000000      0.000000
     2   0 2 0     -3.627295      0.000000      3.071199
     2   0 1 1      0.000000      0.000000      0.000000

 CCSD total energy / hartree       =       -76.329506944469586
         Total SCF energy =    -76.049882263348
 CCSD total energy / hartree       =       -76.139798553760244
 Total times  cpu:       15.5s     wall:       19.9s
