============================== echo of input deck ==============================
 echo
 start H2O
 title "H2O"

 memory total 24 gb

 geometry units bohr
 symmetry c1
        O  0.00000000  0.00000000  0.00000000
        H  0.00000000  1.806581  0.00000000
        H  1.72558000 -0.64860000  0.00000000
 end

 basis spherical
   * library cc-pVTZ
 end

 mcscf
   active  8
   actelec 10
   multiplicity 1
   maxiter 40
   vectors input h2o.mos
   vectors output h2o.mos
 end

 task mcscf

 scf
   vectors input h2o.mos
   vectors output h2o-trash.mos
   noscf
 end

 tce
   2eorb
   2emet 13
   ccsd
 end

# set tce:print_integrals T
# set tce:qorb
# set tce:qela
# set tce:qelb

# set tce:qducc T
# set tce:nactv
# set tce:nonhf F
# set tce:ducc_model 3

 set tce:printtol 0.02

 task tce

 tce
   2eorb
   2emet 13
   ccsd
   freeze virtual 50
 end

 set tce:printtol 0.02

 task tce
================================================================================

 Output coordinates in a.u. (scale by  1.000000000 to convert to a.u.)

  No.       Tag          Charge          X              Y              Z
 ---- ---------------- ---------- -------------- -------------- --------------
    1 O                    8.0000    -0.17255800    -0.11579810     0.00000000
    2 H                    1.0000    -0.17255800     1.69078290     0.00000000
    3 H                    1.0000     1.55302200    -0.76439810     0.00000000

 Vector    1  Occ=1.999988D+00  E=-2.054272D+01  Symmetry=a

 Vector    2  Occ=1.998956D+00  E=-1.346729D+00  Symmetry=a

 Vector    3  Occ=1.982356D+00  E=-7.416432D-01  Symmetry=a

 Vector    4  Occ=1.977963D+00  E=-5.833375D-01  Symmetry=a

 Vector    5  Occ=1.976920D+00  E=-5.247346D-01  Symmetry=a

 Vector    6  Occ=2.380557D-02  E=-2.590132D-02  Symmetry=a

 Vector    7  Occ=2.268590D-02  E=-2.462622D-02  Symmetry=a

 Vector    8  Occ=1.732496D-02  E=-1.602260D-02  Symmetry=a

 Vector    9  Occ=0.000000D+00  E= 2.937269D-01  Symmetry=a

 Vector   10  Occ=0.000000D+00  E= 3.355074D-01  Symmetry=a

 Vector   11  Occ=0.000000D+00  E= 6.120664D-01  Symmetry=a

 Vector   12  Occ=0.000000D+00  E= 6.570069D-01  Symmetry=a

 Vector   13  Occ=0.000000D+00  E= 8.105043D-01  Symmetry=a

 Vector   14  Occ=0.000000D+00  E= 8.452664D-01  Symmetry=a

 Vector   15  Occ=0.000000D+00  E= 9.736761D-01  Symmetry=a

 Vector   16  Occ=0.000000D+00  E= 1.124702D+00  Symmetry=a

 Vector   17  Occ=0.000000D+00  E= 1.173257D+00  Symmetry=a

 Vector   18  Occ=0.000000D+00  E= 1.379611D+00  Symmetry=a

         Total SCF energy =    -76.054318356270

 Vector    2  Occ=2.000000D+00  E=-1.346729D+00

 Vector    3  Occ=2.000000D+00  E=-7.416432D-01

 Vector    4  Occ=2.000000D+00  E=-5.833375D-01

 Vector    5  Occ=2.000000D+00  E=-5.247346D-01

 Vector    6  Occ=0.000000D+00  E=-2.590132D-02

 Vector    7  Occ=0.000000D+00  E=-2.462622D-02

 Vector    8  Occ=0.000000D+00  E=-1.602260D-02

 Vector    9  Occ=0.000000D+00  E= 2.937269D-01

 Vector   10  Occ=0.000000D+00  E= 3.355074D-01

 Vector   11  Occ=0.000000D+00  E= 6.120664D-01

 Vector   12  Occ=0.000000D+00  E= 6.570069D-01

 Vector   13  Occ=0.000000D+00  E= 8.105043D-01

 Vector   14  Occ=0.000000D+00  E= 8.452664D-01

 Vector   15  Occ=0.000000D+00  E= 9.736761D-01

       Multipole analysis of the density wrt the origin
       ------------------------------------------------

     L   x y z        total         open         nuclear
     -   - - -        -----         ----         -------
     0   0 0 0     -0.000000      0.000000     10.000000

     1   1 0 0      0.591467      0.000000     -0.000000
     1   0 1 0      0.401882      0.000000      0.000000
     1   0 0 1      0.000009      0.000000      0.000000

     2   2 0 0     -4.090375      0.000000      2.679864
     2   1 1 0     -0.812757      0.000000     -1.319030
     2   1 0 1     -0.000001      0.000000      0.000000
     2   0 2 0     -3.520655      0.000000      3.550325
     2   0 1 1     -0.000001      0.000000      0.000000

 CCSD total energy / hartree       =       -76.336235387035444
         Total SCF energy =    -76.054318356270
 CCSD total energy / hartree       =       -76.147733621617277
 Total times  cpu:       16.2s     wall:       20.7s
