============================== echo of input deck ==============================
 echo
 start H2O
 title "H2O"

 memory total 24 gb

 geometry units bohr
 symmetry c1
        O  0.00000000  0.00000000  0.00000000
        H  0.00000000  2.1199675  0.00000000
        H  1.72558000 -0.64860000  0.00000000
 end

 basis spherical
   * library cc-pVTZ
 end

 mcscf
   active  8
   actelec 10
   multiplicity 1
   maxiter 40
   vectors input h2o.mos
   vectors output h2o.mos
 end

 task mcscf

 scf
   vectors input h2o.mos
   vectors output h2o-trash.mos
   noscf
 end

 tce
   2eorb
   2emet 13
   ccsd
 end

# set tce:print_integrals T
# set tce:qorb
# set tce:qela
# set tce:qelb

# set tce:qducc T
# set tce:nactv
# set tce:nonhf F
# set tce:ducc_model 3

 set tce:printtol 0.02

 task tce

 tce
   2eorb
   2emet 13
   ccsd
   freeze virtual 50
 end

 set tce:printtol 0.02

 task tce
================================================================================

 Output coordinates in a.u. (scale by  1.000000000 to convert to a.u.)

  No.       Tag          Charge          X              Y              Z
 ---- ---------------- ---------- -------------- -------------- --------------
    1 O                    8.0000    -0.17255800    -0.14713675     0.00000000
    2 H                    1.0000    -0.17255800     1.97283075     0.00000000
    3 H                    1.0000     1.55302200    -0.79573675     0.00000000

 Vector    1  Occ=1.999989D+00  E=-2.055505D+01  Symmetry=a

 Vector    2  Occ=1.998646D+00  E=-1.313774D+00  Symmetry=a

 Vector    3  Occ=1.981049D+00  E=-7.013300D-01  Symmetry=a

 Vector    4  Occ=1.975717D+00  E=-5.691436D-01  Symmetry=a

 Vector    5  Occ=1.965674D+00  E=-5.194974D-01  Symmetry=a

 Vector    6  Occ=3.543193D-02  E=-3.229647D-02  Symmetry=a

 Vector    7  Occ=2.500900D-02  E=-2.577295D-02  Symmetry=a

 Vector    8  Occ=1.848454D-02  E=-1.585440D-02  Symmetry=a

 Vector    9  Occ=0.000000D+00  E= 3.060353D-01  Symmetry=a

 Vector   10  Occ=0.000000D+00  E= 3.350758D-01  Symmetry=a

 Vector   11  Occ=0.000000D+00  E= 6.109346D-01  Symmetry=a

 Vector   12  Occ=0.000000D+00  E= 6.858544D-01  Symmetry=a

 Vector   13  Occ=0.000000D+00  E= 8.172628D-01  Symmetry=a

 Vector   14  Occ=0.000000D+00  E= 8.283471D-01  Symmetry=a

 Vector   15  Occ=0.000000D+00  E= 9.718919D-01  Symmetry=a

 Vector   16  Occ=0.000000D+00  E= 1.122857D+00  Symmetry=a

 Vector   17  Occ=0.000000D+00  E= 1.185969D+00  Symmetry=a

 Vector   18  Occ=0.000000D+00  E= 1.262167D+00  Symmetry=a

         Total SCF energy =    -76.028534443919

 Vector    2  Occ=2.000000D+00  E=-1.313774D+00

 Vector    3  Occ=2.000000D+00  E=-7.013300D-01

 Vector    4  Occ=2.000000D+00  E=-5.691436D-01

 Vector    5  Occ=2.000000D+00  E=-5.194974D-01

 Vector    6  Occ=0.000000D+00  E=-3.229647D-02

 Vector    7  Occ=0.000000D+00  E=-2.577295D-02

 Vector    8  Occ=0.000000D+00  E=-1.585440D-02

 Vector    9  Occ=0.000000D+00  E= 3.060353D-01

 Vector   10  Occ=0.000000D+00  E= 3.350758D-01

 Vector   11  Occ=0.000000D+00  E= 6.109346D-01

 Vector   12  Occ=0.000000D+00  E= 6.858544D-01

 Vector   13  Occ=0.000000D+00  E= 8.172628D-01

 Vector   14  Occ=0.000000D+00  E= 8.283471D-01

 Vector   15  Occ=0.000000D+00  E= 9.718919D-01

       Multipole analysis of the density wrt the origin
       ------------------------------------------------

     L   x y z        total         open         nuclear
     -   - - -        -----         ----         -------
     0   0 0 0     -0.000000      0.000000     10.000000

     1   1 0 0      0.575277      0.000000     -0.000000
     1   0 1 0      0.445201      0.000000      0.000000
     1   0 0 1     -0.000003      0.000000      0.000000

     2   2 0 0     -4.215622      0.000000      2.679864
     2   1 1 0     -0.841617      0.000000     -1.373107
     2   1 0 1     -0.000002      0.000000      0.000000
     2   0 2 0     -3.268441      0.000000      4.698452
     2   0 1 1     -0.000001      0.000000      0.000000

 CCSD total energy / hartree       =       -76.315956413453577
         Total SCF energy =    -76.028534443919
 CCSD total energy / hartree       =       -76.129957500547164
 Total times  cpu:       13.2s     wall:       17.4s
