============================== echo of input deck ==============================
 echo
 start H2
 title "H2"

 memory total 24 gb

 geometry units bohr
 symmetry c1
        H  0.00000000  0.00000000  0.00000000
        H  0.00000000  3.90  0.00000000
 end

 basis
   * library cc-pVQZ
 end

 mcscf
   active  10
   actelec 2
   multiplicity 1
   maxiter 40
   vectors input H2.mos
   vectors output H2.mos
 end

 task mcscf

 scf
   vectors input H2.mos
   vectors output H2-3.90.mos
   noscf
 end

 tce
   2eorb
   2emet 13
   ccsd
   maxiter 300
 end

 set tce:print_integrals T
 set tce:qorb 10
 set tce:qela 1
 set tce:qelb 1

# set tce:qducc T
# set tce:nactv 1
# set tce:nonhf T
# set tce:ducc_model 6

 set tce:printtol 0.02

 task tce
================================================================================

 Output coordinates in a.u. (scale by  1.000000000 to convert to a.u.)

  No.       Tag          Charge          X              Y              Z
 ---- ---------------- ---------- -------------- -------------- --------------
    1 H                    1.0000     0.00000000    -1.95000000     0.00000000
    2 H                    1.0000     0.00000000     1.95000000     0.00000000

 Vector    1  Occ=1.542679D+00  E=-3.684178D-01  Symmetry=a

 Vector    2  Occ=4.533412D-01  E=-1.309531D-01  Symmetry=a

 Vector    3  Occ=1.675326D-03  E=-9.239461D-04  Symmetry=a

 Vector    4  Occ=1.032840D-03  E=-5.846574D-04  Symmetry=a

 Vector    5  Occ=1.032840D-03  E=-5.846574D-04  Symmetry=a

 Vector    6  Occ=1.040296D-04  E=-6.808254D-05  Symmetry=a

 Vector    7  Occ=4.159052D-05  E=-3.400779D-05  Symmetry=a

 Vector    8  Occ=4.159052D-05  E=-3.400779D-05  Symmetry=a

 Vector    9  Occ=3.676140D-05  E=-3.197972D-05  Symmetry=a

 Vector   10  Occ=1.447746D-05  E=-1.614703D-05  Symmetry=a

 Vector   11  Occ=0.000000D+00  E= 4.730411D-01  Symmetry=a

 Vector   12  Occ=0.000000D+00  E= 8.067241D-01  Symmetry=a

 Vector   13  Occ=0.000000D+00  E= 9.840162D-01  Symmetry=a

 Vector   14  Occ=0.000000D+00  E= 1.384482D+00  Symmetry=a

 Vector   15  Occ=0.000000D+00  E= 1.384482D+00  Symmetry=a

 Vector   16  Occ=0.000000D+00  E= 1.755386D+00  Symmetry=a

 Vector   17  Occ=0.000000D+00  E= 1.786985D+00  Symmetry=a

 Vector   18  Occ=0.000000D+00  E= 1.786985D+00  Symmetry=a

 Vector   19  Occ=0.000000D+00  E= 1.889716D+00  Symmetry=a

 Vector   20  Occ=0.000000D+00  E= 1.889716D+00  Symmetry=a

         Total SCF energy =     -0.907144050872

 Vector    1  Occ=2.000000D+00  E=-3.684178D-01

 Vector    2  Occ=0.000000D+00  E=-1.309531D-01

 Vector    3  Occ=0.000000D+00  E=-9.239461D-04

 Vector    4  Occ=0.000000D+00  E=-5.846574D-04

 Vector    5  Occ=0.000000D+00  E=-5.846574D-04

 Vector    6  Occ=0.000000D+00  E=-6.808254D-05

 Vector    7  Occ=0.000000D+00  E=-3.400779D-05

 Vector    8  Occ=0.000000D+00  E=-3.400779D-05

 Vector    9  Occ=0.000000D+00  E=-3.197972D-05

 Vector   10  Occ=0.000000D+00  E=-1.614703D-05

 Vector   11  Occ=0.000000D+00  E= 4.730411D-01

 Vector   12  Occ=0.000000D+00  E= 8.067241D-01

       Multipole analysis of the density wrt the origin
       ------------------------------------------------

     L   x y z        total         open         nuclear
     -   - - -        -----         ----         -------
     0   0 0 0     -0.000000      0.000000      2.000000

     1   1 0 0     -0.000000      0.000000      0.000000
     1   0 1 0     -0.000000      0.000000      0.000000
     1   0 0 1      0.000000      0.000000      0.000000

     2   2 0 0     -2.224625      0.000000      0.000000
     2   1 1 0     -0.000000      0.000000      0.000000
     2   1 0 1     -0.000000      0.000000      0.000000
     2   0 2 0     -0.961729      0.000000      7.605000
     2   0 1 1      0.000000      0.000000      0.000000

 CCSD total energy / hartree       =        -1.017994159719700
 Total times  cpu:       19.5s     wall:       25.3s
