============================== echo of input deck ==============================
 echo
 start H2
 title "H2"

 memory total 24 gb

 geometry units bohr
 symmetry c1
        H  0.00000000  0.00000000  0.00000000
        H  0.00000000  4.25  0.00000000
 end

 basis
   * library cc-pVQZ
 end

 mcscf
   active  10
   actelec 2
   multiplicity 1
   maxiter 40
   vectors input H2.mos
   vectors output H2.mos
 end

 task mcscf

 scf
   vectors input H2.mos
   vectors output H2-4.25.mos
   noscf
 end

 tce
   2eorb
   2emet 13
   ccsd
   maxiter 300
 end

 set tce:print_integrals T
 set tce:qorb 10
 set tce:qela 1
 set tce:qelb 1

# set tce:qducc T
# set tce:nactv 1
# set tce:nonhf T
# set tce:ducc_model 6

 set tce:printtol 0.02

 task tce
================================================================================

 Output coordinates in a.u. (scale by  1.000000000 to convert to a.u.)

  No.       Tag          Charge          X              Y              Z
 ---- ---------------- ---------- -------------- -------------- --------------
    1 H                    1.0000     0.00000000    -2.12500000     0.00000000
    2 H                    1.0000     0.00000000     2.12500000     0.00000000

 Vector    1  Occ=1.439995D+00  E=-3.443837D-01  Symmetry=a

 Vector    2  Occ=5.574068D-01  E=-1.546771D-01  Symmetry=a

 Vector    3  Occ=1.212903D-03  E=-6.503543D-04  Symmetry=a

 Vector    4  Occ=6.317874D-04  E=-3.556489D-04  Symmetry=a

 Vector    5  Occ=6.317874D-04  E=-3.556489D-04  Symmetry=a

 Vector    6  Occ=5.538899D-05  E=-3.543765D-05  Symmetry=a

 Vector    7  Occ=2.111007D-05  E=-1.725053D-05  Symmetry=a

 Vector    8  Occ=2.111007D-05  E=-1.725053D-05  Symmetry=a

 Vector    9  Occ=1.702561D-05  E=-1.515407D-05  Symmetry=a

 Vector   10  Occ=6.591358D-06  E=-8.022099D-06  Symmetry=a

 Vector   11  Occ=0.000000D+00  E= 4.650873D-01  Symmetry=a

 Vector   12  Occ=0.000000D+00  E= 8.062581D-01  Symmetry=a

 Vector   13  Occ=0.000000D+00  E= 9.137832D-01  Symmetry=a

 Vector   14  Occ=0.000000D+00  E= 1.351518D+00  Symmetry=a

 Vector   15  Occ=0.000000D+00  E= 1.351518D+00  Symmetry=a

 Vector   16  Occ=0.000000D+00  E= 1.702374D+00  Symmetry=a

 Vector   17  Occ=0.000000D+00  E= 1.798452D+00  Symmetry=a

 Vector   18  Occ=0.000000D+00  E= 1.798452D+00  Symmetry=a

 Vector   19  Occ=0.000000D+00  E= 1.942441D+00  Symmetry=a

 Vector   20  Occ=0.000000D+00  E= 1.942441D+00  Symmetry=a

         Total SCF energy =     -0.881740670651

 Vector    1  Occ=2.000000D+00  E=-3.443837D-01

 Vector    2  Occ=0.000000D+00  E=-1.546771D-01

 Vector    3  Occ=0.000000D+00  E=-6.503543D-04

 Vector    4  Occ=0.000000D+00  E=-3.556489D-04

 Vector    5  Occ=0.000000D+00  E=-3.556489D-04

 Vector    6  Occ=0.000000D+00  E=-3.543765D-05

 Vector    7  Occ=0.000000D+00  E=-1.725053D-05

 Vector    8  Occ=0.000000D+00  E=-1.725053D-05

 Vector    9  Occ=0.000000D+00  E=-1.515407D-05

 Vector   10  Occ=0.000000D+00  E=-8.022099D-06

 Vector   11  Occ=0.000000D+00  E= 4.650873D-01

 Vector   12  Occ=0.000000D+00  E= 8.062581D-01

       Multipole analysis of the density wrt the origin
       ------------------------------------------------

     L   x y z        total         open         nuclear
     -   - - -        -----         ----         -------
     0   0 0 0     -0.000000      0.000000      2.000000

     1   1 0 0     -0.000000      0.000000      0.000000
     1   0 1 0     -0.000000      0.000000      0.000000
     1   0 0 1      0.000000      0.000000      0.000000

     2   2 0 0     -2.212029      0.000000      0.000000
     2   1 1 0     -0.000000      0.000000      0.000000
     2   1 0 1      0.000000      0.000000      0.000000
     2   0 2 0     -1.015094      0.000000      9.031250
     2   0 1 1      0.000000      0.000000      0.000000

 CCSD total energy / hartree       =        -1.010845418243235
 Total times  cpu:       20.5s     wall:       25.8s
