============================== echo of input deck ==============================
 echo
 start H2
 title "H2"

 memory total 24 gb

 geometry units bohr
 symmetry c1
        H  0.00000000  0.00000000  0.00000000
        H  0.00000000  5.55  0.00000000
 end

 basis
   * library cc-pVQZ
 end

 mcscf
   active  10
   actelec 2
   multiplicity 1
   maxiter 40
   vectors input H2.mos
   vectors output H2.mos
 end

 task mcscf

 scf
   vectors input H2.mos
   vectors output H2-5.55.mos
   noscf
 end

 tce
   2eorb
   2emet 13
   ccsd
   maxiter 300
 end

 set tce:print_integrals T
 set tce:qorb 10
 set tce:qela 1
 set tce:qelb 1

# set tce:qducc T
# set tce:nactv 1
# set tce:nonhf T
# set tce:ducc_model 6

 set tce:printtol 0.02

 task tce
================================================================================

 Output coordinates in a.u. (scale by  1.000000000 to convert to a.u.)

  No.       Tag          Charge          X              Y              Z
 ---- ---------------- ---------- -------------- -------------- --------------
    1 H                    1.0000     0.00000000    -2.77500000     0.00000000
    2 H                    1.0000     0.00000000     2.77500000     0.00000000

 Vector    1  Occ=1.171313D+00  E=-2.860623D-01  Symmetry=a

 Vector    2  Occ=8.282462D-01  E=-2.136686D-01  Symmetry=a

 Vector    3  Occ=2.705090D-04  E=-1.410478D-04  Symmetry=a

 Vector    4  Occ=8.242755D-05  E=-4.689350D-05  Symmetry=a

 Vector    5  Occ=8.242755D-05  E=-4.689350D-05  Symmetry=a

 Vector    6  Occ=3.082786D-06  E=-1.994026D-06  Symmetry=a

 Vector    7  Occ=9.608084D-07  E=-9.181635D-07  Symmetry=a

 Vector    8  Occ=5.676037D-07  E=-5.771947D-07  Symmetry=a

 Vector    9  Occ=5.676037D-07  E=-5.097597D-07  Symmetry=a

 Vector   10  Occ=4.542462D-07  E=-5.097597D-07  Symmetry=a

 Vector   11  Occ=0.000000D+00  E= 4.415928D-01  Symmetry=a

 Vector   12  Occ=0.000000D+00  E= 6.777808D-01  Symmetry=a

 Vector   13  Occ=0.000000D+00  E= 8.043224D-01  Symmetry=a

 Vector   14  Occ=0.000000D+00  E= 1.170340D+00  Symmetry=a

 Vector   15  Occ=0.000000D+00  E= 1.170340D+00  Symmetry=a

 Vector   16  Occ=0.000000D+00  E= 1.735979D+00  Symmetry=a

 Vector   17  Occ=0.000000D+00  E= 1.808934D+00  Symmetry=a

 Vector   18  Occ=0.000000D+00  E= 1.808934D+00  Symmetry=a

 Vector   19  Occ=0.000000D+00  E= 1.859698D+00  Symmetry=a

 Vector   20  Occ=0.000000D+00  E= 2.032912D+00  Symmetry=a

         Total SCF energy =     -0.812221055506

 Vector    1  Occ=2.000000D+00  E=-2.860623D-01

 Vector    2  Occ=0.000000D+00  E=-2.136686D-01

 Vector    3  Occ=0.000000D+00  E=-1.410478D-04

 Vector    4  Occ=0.000000D+00  E=-4.689350D-05

 Vector    5  Occ=0.000000D+00  E=-4.689350D-05

 Vector    6  Occ=0.000000D+00  E=-1.994026D-06

 Vector    7  Occ=0.000000D+00  E=-9.181635D-07

 Vector    8  Occ=0.000000D+00  E=-5.771947D-07

 Vector    9  Occ=0.000000D+00  E=-5.097597D-07

 Vector   10  Occ=0.000000D+00  E=-5.097597D-07

 Vector   11  Occ=0.000000D+00  E= 4.415928D-01

 Vector   12  Occ=0.000000D+00  E= 6.777808D-01

       Multipole analysis of the density wrt the origin
       ------------------------------------------------

     L   x y z        total         open         nuclear
     -   - - -        -----         ----         -------
     0   0 0 0     -0.000000      0.000000      2.000000

     1   1 0 0     -0.000000      0.000000      0.000000
     1   0 1 0     -0.000000      0.000000      0.000000
     1   0 0 1      0.000000      0.000000      0.000000

     2   2 0 0     -2.120799      0.000000      0.000000
     2   1 1 0     -0.000000      0.000000      0.000000
     2   1 0 1      0.000000      0.000000      0.000000
     2   0 2 0     -1.316446      0.000000     15.401250
     2   0 1 1      0.000000      0.000000      0.000000

 CCSD total energy / hartree       =        -1.001357433795371
 Total times  cpu:       21.4s     wall:       26.8s
