============================== echo of input deck ==============================
 echo
 start H2
 title "H2"

 memory total 24 gb

 geometry units bohr
 symmetry c1
        H  0.00000000  0.00000000  0.00000000
        H  0.00000000  7.05  0.00000000
 end

 basis
   * library cc-pVQZ
 end

 mcscf
   active  10
   actelec 2
   multiplicity 1
   maxiter 40
   vectors input H2.mos
   vectors output H2.mos
 end

 task mcscf

 scf
   vectors input H2.mos
   vectors output H2-7.05.mos
   noscf
 end

 tce
   2eorb
   2emet 13
   ccsd
   maxiter 300
   lshift 0.4
 end

 set tce:print_integrals T
 set tce:qorb 10
 set tce:qela 1
 set tce:qelb 1

# set tce:qducc T
# set tce:nactv 1
# set tce:nonhf T
# set tce:ducc_model 6

 set tce:printtol 0.02

 task tce
================================================================================

 Output coordinates in a.u. (scale by  1.000000000 to convert to a.u.)

  No.       Tag          Charge          X              Y              Z
 ---- ---------------- ---------- -------------- -------------- --------------
    1 H                    1.0000     0.00000000    -3.52500000     0.00000000
    2 H                    1.0000     0.00000000     3.52500000     0.00000000

 Vector    1  Occ=1.052067D+00  E=-2.610145D-01  Symmetry=a

 Vector    2  Occ=9.478760D-01  E=-2.389116D-01  Symmetry=a

 Vector    3  Occ=3.823255D-05  E=-2.080176D-05  Symmetry=a

 Vector    4  Occ=9.467051D-06  E=-5.415855D-06  Symmetry=a

 Vector    5  Occ=9.467051D-06  E=-5.415855D-06  Symmetry=a

 Vector    6  Occ=8.030931D-08  E=-5.679931D-08  Symmetry=a

 Vector    7  Occ=4.340401D-08  E=-4.008813D-08  Symmetry=a

 Vector    8  Occ=3.578101D-08  E=-3.255709D-08  Symmetry=a

 Vector    9  Occ=3.578101D-08  E=-3.255709D-08  Symmetry=a

 Vector   10  Occ=1.759019D-08  E=-2.055695D-08  Symmetry=a

 Vector   11  Occ=0.000000D+00  E= 4.199900D-01  Symmetry=a

 Vector   12  Occ=0.000000D+00  E= 6.115291D-01  Symmetry=a

 Vector   13  Occ=0.000000D+00  E= 8.305712D-01  Symmetry=a

 Vector   14  Occ=0.000000D+00  E= 1.134693D+00  Symmetry=a

 Vector   15  Occ=0.000000D+00  E= 1.134693D+00  Symmetry=a

 Vector   16  Occ=0.000000D+00  E= 1.756587D+00  Symmetry=a

 Vector   17  Occ=0.000000D+00  E= 1.835099D+00  Symmetry=a

 Vector   18  Occ=0.000000D+00  E= 1.835099D+00  Symmetry=a

 Vector   19  Occ=0.000000D+00  E= 1.910375D+00  Symmetry=a

 Vector   20  Occ=0.000000D+00  E= 2.049797D+00  Symmetry=a

         Total SCF energy =     -0.770193670885

 Vector    1  Occ=2.000000D+00  E=-2.610145D-01

 Vector    2  Occ=0.000000D+00  E=-2.389116D-01

 Vector    3  Occ=0.000000D+00  E=-2.080176D-05

 Vector    4  Occ=0.000000D+00  E=-5.415855D-06

 Vector    5  Occ=0.000000D+00  E=-5.415855D-06

 Vector    6  Occ=0.000000D+00  E=-5.679931D-08

 Vector    7  Occ=0.000000D+00  E=-4.008813D-08

 Vector    8  Occ=0.000000D+00  E=-3.255709D-08

 Vector    9  Occ=0.000000D+00  E=-3.255709D-08

 Vector   10  Occ=0.000000D+00  E=-2.055695D-08

 Vector   11  Occ=0.000000D+00  E= 4.199900D-01

 Vector   12  Occ=0.000000D+00  E= 6.115291D-01

       Multipole analysis of the density wrt the origin
       ------------------------------------------------

     L   x y z        total         open         nuclear
     -   - - -        -----         ----         -------
     0   0 0 0     -0.000000      0.000000      2.000000

     1   1 0 0     -0.000000      0.000000      0.000000
     1   0 1 0     -0.000000      0.000000      0.000000
     1   0 0 1      0.000000      0.000000      0.000000

     2   2 0 0     -2.046520      0.000000      0.000000
     2   1 1 0     -0.000000      0.000000      0.000000
     2   1 0 1      0.000000      0.000000      0.000000
     2   0 2 0     -1.636401      0.000000     24.851250
     2   0 1 1      0.000000      0.000000      0.000000

 CCSD total energy / hartree       =        -1.000026607127179
 Total times  cpu:       21.7s     wall:       26.3s
