============================== echo of input deck ==============================
 echo
 start H2O
 title "H2O"

 memory total 24 gb

 geometry units bohr
 symmetry c1
        O  0.00000000  0.00000000  0.00000000
        H  0.00000000  1.70519125  0.00000000
        H  1.72558000 -0.64860000  0.00000000
 end

 basis spherical
   * library 6-311++G**
 end

 mcscf
   active  8
   actelec 10
   multiplicity 1
   maxiter 40
   vectors input h2o.mos
   vectors output h2o.mos
 end

 task mcscf

 scf
   vectors input h2o.mos
   vectors output h2o-trash.mos
   noscf
 end

 tce
   2eorb
   2emet 13
   ccsd
   maxiter 300
 end

 set tce:print_integrals T
 set tce:qorb 8
 set tce:qela 5
 set tce:qelb 5

# set tce:qducc T
# set tce:nactv 3
# set tce:nonhf T
# set tce:ducc_model 6

 set tce:printtol 0.02

 task tce
================================================================================

 Output coordinates in a.u. (scale by  1.000000000 to convert to a.u.)

  No.       Tag          Charge          X              Y              Z
 ---- ---------------- ---------- -------------- -------------- --------------
    1 O                    8.0000    -0.17255800    -0.10565913     0.00000000
    2 H                    1.0000    -0.17255800     1.59953213     0.00000000
    3 H                    1.0000     1.55302200    -0.75425913     0.00000000

 Vector    1  Occ=1.999989D+00  E=-2.055455D+01  Symmetry=a

 Vector    2  Occ=1.999011D+00  E=-1.374427D+00  Symmetry=a

 Vector    3  Occ=1.981475D+00  E=-7.700580D-01  Symmetry=a

 Vector    4  Occ=1.980377D+00  E=-5.965099D-01  Symmetry=a

 Vector    5  Occ=1.976881D+00  E=-5.344348D-01  Symmetry=a

 Vector    6  Occ=2.386068D-02  E=-2.597180D-02  Symmetry=a

 Vector    7  Occ=2.015612D-02  E=-2.281430D-02  Symmetry=a

 Vector    8  Occ=1.824986D-02  E=-1.693809D-02  Symmetry=a

 Vector    9  Occ=0.000000D+00  E= 7.013357D-02  Symmetry=a

 Vector   10  Occ=0.000000D+00  E= 8.760753D-02  Symmetry=a

 Vector   11  Occ=0.000000D+00  E= 2.403750D-01  Symmetry=a

 Vector   12  Occ=0.000000D+00  E= 2.778889D-01  Symmetry=a

 Vector   13  Occ=0.000000D+00  E= 3.151635D-01  Symmetry=a

 Vector   14  Occ=0.000000D+00  E= 4.915151D-01  Symmetry=a

 Vector   15  Occ=0.000000D+00  E= 5.058124D-01  Symmetry=a

 Vector   16  Occ=0.000000D+00  E= 6.064507D-01  Symmetry=a

 Vector   17  Occ=0.000000D+00  E= 9.721279D-01  Symmetry=a

 Vector   18  Occ=0.000000D+00  E= 1.035206D+00  Symmetry=a

         Total SCF energy =    -76.048590910496

 Vector    2  Occ=2.000000D+00  E=-1.374427D+00

 Vector    3  Occ=2.000000D+00  E=-7.700580D-01

 Vector    4  Occ=2.000000D+00  E=-5.965099D-01

 Vector    5  Occ=2.000000D+00  E=-5.344348D-01

 Vector    6  Occ=0.000000D+00  E=-2.597180D-02

 Vector    7  Occ=0.000000D+00  E=-2.281430D-02

 Vector    8  Occ=0.000000D+00  E=-1.693809D-02

 Vector    9  Occ=0.000000D+00  E= 7.013357D-02

 Vector   10  Occ=0.000000D+00  E= 8.760753D-02

 Vector   11  Occ=0.000000D+00  E= 2.403750D-01

 Vector   12  Occ=0.000000D+00  E= 2.778889D-01

 Vector   13  Occ=0.000000D+00  E= 3.151635D-01

 Vector   14  Occ=0.000000D+00  E= 4.915151D-01

 Vector   15  Occ=0.000000D+00  E= 5.058124D-01

       Multipole analysis of the density wrt the origin
       ------------------------------------------------

     L   x y z        total         open         nuclear
     -   - - -        -----         ----         -------
     0   0 0 0     -0.000000      0.000000     10.000000

     1   1 0 0      0.672494      0.000000     -0.000000
     1   0 1 0      0.432805      0.000000      0.000000
     1   0 0 1     -0.000000      0.000000      0.000000

     2   2 0 0     -4.207157      0.000000      2.679864
     2   1 1 0     -0.855992      0.000000     -1.301534
     2   1 0 1      0.000000      0.000000      0.000000
     2   0 2 0     -3.719429      0.000000      3.216721
     2   0 1 1      0.000000      0.000000      0.000000

 CCSD total energy / hartree       =       -76.140582597057374
 Total times  cpu:       52.1s     wall:       72.6s
