============================== echo of input deck ==============================
 echo
 start H2O
 title "H2O"

 memory total 24 gb

 geometry units bohr
 symmetry c1
        O  0.00000000  0.00000000  0.00000000
        H  0.00000000  1.7512775  0.00000000
        H  1.72558000 -0.64860000  0.00000000
 end

 basis spherical
   * library 6-311++G**
 end

 mcscf
   active  8
   actelec 10
   multiplicity 1
   maxiter 40
   vectors input h2o.mos
   vectors output h2o.mos
 end

 task mcscf

 scf
   vectors input h2o.mos
   vectors output h2o-trash.mos
   noscf
 end

 tce
   2eorb
   2emet 13
   ccsd
   maxiter 300
 end

 set tce:print_integrals T
 set tce:qorb 8
 set tce:qela 5
 set tce:qelb 5

# set tce:qducc T
# set tce:nactv 3
# set tce:nonhf T
# set tce:ducc_model 6

 set tce:printtol 0.02

 task tce
================================================================================

 Output coordinates in a.u. (scale by  1.000000000 to convert to a.u.)

  No.       Tag          Charge          X              Y              Z
 ---- ---------------- ---------- -------------- -------------- --------------
    1 O                    8.0000    -0.17255800    -0.11026775     0.00000000
    2 H                    1.0000    -0.17255800     1.64100975     0.00000000
    3 H                    1.0000     1.55302200    -0.75886775     0.00000000

 Vector    1  Occ=1.999989D+00  E=-2.055677D+01  Symmetry=a

 Vector    2  Occ=1.998975D+00  E=-1.367320D+00  Symmetry=a

 Vector    3  Occ=1.981214D+00  E=-7.632308D-01  Symmetry=a

 Vector    4  Occ=1.979127D+00  E=-5.946999D-01  Symmetry=a

 Vector    5  Occ=1.976703D+00  E=-5.333355D-01  Symmetry=a

 Vector    6  Occ=2.405876D-02  E=-2.605162D-02  Symmetry=a

 Vector    7  Occ=2.144081D-02  E=-2.373646D-02  Symmetry=a

 Vector    8  Occ=1.849105D-02  E=-1.696572D-02  Symmetry=a

 Vector    9  Occ=0.000000D+00  E= 7.052859D-02  Symmetry=a

 Vector   10  Occ=0.000000D+00  E= 8.762634D-02  Symmetry=a

 Vector   11  Occ=0.000000D+00  E= 2.393846D-01  Symmetry=a

 Vector   12  Occ=0.000000D+00  E= 2.778958D-01  Symmetry=a

 Vector   13  Occ=0.000000D+00  E= 3.155864D-01  Symmetry=a

 Vector   14  Occ=0.000000D+00  E= 4.916622D-01  Symmetry=a

 Vector   15  Occ=0.000000D+00  E= 5.031108D-01  Symmetry=a

 Vector   16  Occ=0.000000D+00  E= 6.099051D-01  Symmetry=a

 Vector   17  Occ=0.000000D+00  E= 9.820219D-01  Symmetry=a

 Vector   18  Occ=0.000000D+00  E= 1.037237D+00  Symmetry=a

         Total SCF energy =    -76.050096419972

 Vector    2  Occ=2.000000D+00  E=-1.367320D+00

 Vector    3  Occ=2.000000D+00  E=-7.632308D-01

 Vector    4  Occ=2.000000D+00  E=-5.946999D-01

 Vector    5  Occ=2.000000D+00  E=-5.333355D-01

 Vector    6  Occ=0.000000D+00  E=-2.605162D-02

 Vector    7  Occ=0.000000D+00  E=-2.373646D-02

 Vector    8  Occ=0.000000D+00  E=-1.696572D-02

 Vector    9  Occ=0.000000D+00  E= 7.052859D-02

 Vector   10  Occ=0.000000D+00  E= 8.762634D-02

 Vector   11  Occ=0.000000D+00  E= 2.393846D-01

 Vector   12  Occ=0.000000D+00  E= 2.778958D-01

 Vector   13  Occ=0.000000D+00  E= 3.155864D-01

 Vector   14  Occ=0.000000D+00  E= 4.916622D-01

 Vector   15  Occ=0.000000D+00  E= 5.031108D-01

       Multipole analysis of the density wrt the origin
       ------------------------------------------------

     L   x y z        total         open         nuclear
     -   - - -        -----         ----         -------
     0   0 0 0     -0.000000      0.000000     10.000000

     1   1 0 0      0.670122      0.000000     -0.000000
     1   0 1 0      0.442466      0.000000      0.000000
     1   0 0 1     -0.000000      0.000000      0.000000

     2   2 0 0     -4.229039      0.000000      2.679864
     2   1 1 0     -0.861647      0.000000     -1.309487
     2   1 0 1      0.000000      0.000000      0.000000
     2   0 2 0     -3.686156      0.000000      3.366065
     2   0 1 1      0.000000      0.000000      0.000000

 CCSD total energy / hartree       =       -76.143234870475311
 Total times  cpu:       63.7s     wall:       88.3s
