============================== echo of input deck ==============================
 echo
 start H2O
 title "H2O"

 memory total 24 gb

 geometry units bohr
 symmetry c1
        O  0.00000000  0.00000000  0.00000000
        H  0.00000000  1.7881465  0.00000000
        H  1.72558000 -0.64860000  0.00000000
 end

 basis spherical
   * library 6-311++G**
 end

 mcscf
   active  8
   actelec 10
   multiplicity 1
   maxiter 40
   vectors input h2o.mos
   vectors output h2o.mos
 end

 task mcscf

 scf
   vectors input h2o.mos
   vectors output h2o-trash.mos
   noscf
 end

 tce
   2eorb
   2emet 13
   ccsd
   maxiter 300
 end

 set tce:print_integrals T
 set tce:qorb 8
 set tce:qela 5
 set tce:qelb 5

# set tce:qducc T
# set tce:nactv 3
# set tce:nonhf T
# set tce:ducc_model 6

 set tce:printtol 0.02

 task tce
================================================================================

 Output coordinates in a.u. (scale by  1.000000000 to convert to a.u.)

  No.       Tag          Charge          X              Y              Z
 ---- ---------------- ---------- -------------- -------------- --------------
    1 O                    8.0000    -0.17255800    -0.11395465     0.00000000
    2 H                    1.0000    -0.17255800     1.67419185     0.00000000
    3 H                    1.0000     1.55302200    -0.76255465     0.00000000

 Vector    1  Occ=1.999989D+00  E=-2.055849D+01  Symmetry=a

 Vector    2  Occ=1.998946D+00  E=-1.362003D+00  Symmetry=a

 Vector    3  Occ=1.981008D+00  E=-7.578680D-01  Symmetry=a

 Vector    4  Occ=1.978063D+00  E=-5.932396D-01  Symmetry=a

 Vector    5  Occ=1.976557D+00  E=-5.325055D-01  Symmetry=a

 Vector    6  Occ=2.424008D-02  E=-2.616856D-02  Symmetry=a

 Vector    7  Occ=2.251465D-02  E=-2.443994D-02  Symmetry=a

 Vector    8  Occ=1.868169D-02  E=-1.698375D-02  Symmetry=a

 Vector    9  Occ=0.000000D+00  E= 7.081849D-02  Symmetry=a

 Vector   10  Occ=0.000000D+00  E= 8.762325D-02  Symmetry=a

 Vector   11  Occ=0.000000D+00  E= 2.387555D-01  Symmetry=a

 Vector   12  Occ=0.000000D+00  E= 2.779216D-01  Symmetry=a

 Vector   13  Occ=0.000000D+00  E= 3.158959D-01  Symmetry=a

 Vector   14  Occ=0.000000D+00  E= 4.914976D-01  Symmetry=a

 Vector   15  Occ=0.000000D+00  E= 5.014274D-01  Symmetry=a

 Vector   16  Occ=0.000000D+00  E= 6.126608D-01  Symmetry=a

 Vector   17  Occ=0.000000D+00  E= 9.890289D-01  Symmetry=a

 Vector   18  Occ=0.000000D+00  E= 1.039774D+00  Symmetry=a

         Total SCF energy =    -76.050218756791

 Vector    2  Occ=2.000000D+00  E=-1.362003D+00

 Vector    3  Occ=2.000000D+00  E=-7.578680D-01

 Vector    4  Occ=2.000000D+00  E=-5.932396D-01

 Vector    5  Occ=2.000000D+00  E=-5.325055D-01

 Vector    6  Occ=0.000000D+00  E=-2.616856D-02

 Vector    7  Occ=0.000000D+00  E=-2.443994D-02

 Vector    8  Occ=0.000000D+00  E=-1.698375D-02

 Vector    9  Occ=0.000000D+00  E= 7.081849D-02

 Vector   10  Occ=0.000000D+00  E= 8.762325D-02

 Vector   11  Occ=0.000000D+00  E= 2.387555D-01

 Vector   12  Occ=0.000000D+00  E= 2.779216D-01

 Vector   13  Occ=0.000000D+00  E= 3.158959D-01

 Vector   14  Occ=0.000000D+00  E= 4.914976D-01

 Vector   15  Occ=0.000000D+00  E= 5.014274D-01

       Multipole analysis of the density wrt the origin
       ------------------------------------------------

     L   x y z        total         open         nuclear
     -   - - -        -----         ----         -------
     0   0 0 0     -0.000000      0.000000     10.000000

     1   1 0 0      0.668274      0.000000     -0.000000
     1   0 1 0      0.449988      0.000000      0.000000
     1   0 0 1     -0.000000      0.000000      0.000000

     2   2 0 0     -4.246253      0.000000      2.679864
     2   1 1 0     -0.866100      0.000000     -1.315849
     2   1 0 1      0.000000      0.000000      0.000000
     2   0 2 0     -3.658534      0.000000      3.488293
     2   0 1 1      0.000000      0.000000      0.000000

 CCSD total energy / hartree       =       -76.144286780910647
 Total times  cpu:       53.4s     wall:       74.4s
