============================== echo of input deck ==============================
 echo
 start H2O
 title "H2O"

 memory total 24 gb

 geometry units bohr
 symmetry c1
        O  0.00000000  0.00000000  0.00000000
        H  0.00000000  1.81579825  0.00000000
        H  1.72558000 -0.64860000  0.00000000
 end

 basis spherical
   * library 6-311++G**
 end

 mcscf
   active  8
   actelec 10
   multiplicity 1
   maxiter 40
   vectors input h2o.mos
   vectors output h2o.mos
 end

 task mcscf

 scf
   vectors input h2o.mos
   vectors output h2o-trash.mos
   noscf
 end

 tce
   2eorb
   2emet 13
   ccsd
   maxiter 300
 end

 set tce:print_integrals T
 set tce:qorb 8
 set tce:qela 5
 set tce:qelb 5

# set tce:qducc T
# set tce:nactv 3
# set tce:nonhf T
# set tce:ducc_model 6

 set tce:printtol 0.02

 task tce
================================================================================

 Output coordinates in a.u. (scale by  1.000000000 to convert to a.u.)

  No.       Tag          Charge          X              Y              Z
 ---- ---------------- ---------- -------------- -------------- --------------
    1 O                    8.0000    -0.17255800    -0.11671983     0.00000000
    2 H                    1.0000    -0.17255800     1.69907843     0.00000000
    3 H                    1.0000     1.55302200    -0.76531983     0.00000000

 Vector    1  Occ=1.999990D+00  E=-2.055974D+01  Symmetry=a

 Vector    2  Occ=1.998923D+00  E=-1.358221D+00  Symmetry=a

 Vector    3  Occ=1.980855D+00  E=-7.539096D-01  Symmetry=a

 Vector    4  Occ=1.977229D+00  E=-5.921329D-01  Symmetry=a

 Vector    5  Occ=1.976442D+00  E=-5.319117D-01  Symmetry=a

 Vector    6  Occ=2.442219D-02  E=-2.632609D-02  Symmetry=a

 Vector    7  Occ=2.331591D-02  E=-2.490963D-02  Symmetry=a

 Vector    8  Occ=1.882279D-02  E=-1.699479D-02  Symmetry=a

 Vector    9  Occ=0.000000D+00  E= 7.102487D-02  Symmetry=a

 Vector   10  Occ=0.000000D+00  E= 8.761307D-02  Symmetry=a

 Vector   11  Occ=0.000000D+00  E= 2.383599D-01  Symmetry=a

 Vector   12  Occ=0.000000D+00  E= 2.779518D-01  Symmetry=a

 Vector   13  Occ=0.000000D+00  E= 3.161129D-01  Symmetry=a

 Vector   14  Occ=0.000000D+00  E= 4.911657D-01  Symmetry=a

 Vector   15  Occ=0.000000D+00  E= 5.004884D-01  Symmetry=a

 Vector   16  Occ=0.000000D+00  E= 6.147222D-01  Symmetry=a

 Vector   17  Occ=0.000000D+00  E= 9.936560D-01  Symmetry=a

 Vector   18  Occ=0.000000D+00  E= 1.042304D+00  Symmetry=a

         Total SCF energy =    -76.049757941466

 Vector    2  Occ=2.000000D+00  E=-1.358221D+00

 Vector    3  Occ=2.000000D+00  E=-7.539096D-01

 Vector    4  Occ=2.000000D+00  E=-5.921329D-01

 Vector    5  Occ=2.000000D+00  E=-5.319117D-01

 Vector    6  Occ=0.000000D+00  E=-2.632609D-02

 Vector    7  Occ=0.000000D+00  E=-2.490963D-02

 Vector    8  Occ=0.000000D+00  E=-1.699479D-02

 Vector    9  Occ=0.000000D+00  E= 7.102487D-02

 Vector   10  Occ=0.000000D+00  E= 8.761307D-02

 Vector   11  Occ=0.000000D+00  E= 2.383599D-01

 Vector   12  Occ=0.000000D+00  E= 2.779518D-01

 Vector   13  Occ=0.000000D+00  E= 3.161129D-01

 Vector   14  Occ=0.000000D+00  E= 4.911657D-01

 Vector   15  Occ=0.000000D+00  E= 5.004884D-01

       Multipole analysis of the density wrt the origin
       ------------------------------------------------

     L   x y z        total         open         nuclear
     -   - - -        -----         ----         -------
     0   0 0 0     -0.000000      0.000000     10.000000

     1   1 0 0      0.666914      0.000000     -0.000000
     1   0 1 0      0.455487      0.000000      0.000000
     1   0 0 1     -0.000001      0.000000      0.000000

     2   2 0 0     -4.258982      0.000000      2.679864
     2   1 1 0     -0.869387      0.000000     -1.320621
     2   1 0 1      0.000002      0.000000      0.000000
     2   0 2 0     -3.637278      0.000000      3.581570
     2   0 1 1      0.000001      0.000000      0.000000

 CCSD total energy / hartree       =       -76.144529672524371
 Total times  cpu:       78.6s     wall:      111.0s
