============================== echo of input deck ==============================
 echo
 start H2O
 title "H2O"

 memory total 24 gb

 geometry units bohr
 symmetry c1
        O  0.00000000  0.00000000  0.00000000
        H  0.00000000  1.8250155  0.00000000
        H  1.72558000 -0.64860000  0.00000000
 end

 basis spherical
   * library 6-311++G**
 end

 mcscf
   active  8
   actelec 10
   multiplicity 1
   maxiter 40
   vectors input h2o.mos
   vectors output h2o.mos
 end

 task mcscf

 scf
   vectors input h2o.mos
   vectors output h2o-trash.mos
   noscf
 end

 tce
   2eorb
   2emet 13
   ccsd
   maxiter 300
 end

 set tce:print_integrals T
 set tce:qorb 8
 set tce:qela 5
 set tce:qelb 5

# set tce:qducc T
# set tce:nactv 3
# set tce:nonhf T
# set tce:ducc_model 6

 set tce:printtol 0.02

 task tce
================================================================================

 Output coordinates in a.u. (scale by  1.000000000 to convert to a.u.)

  No.       Tag          Charge          X              Y              Z
 ---- ---------------- ---------- -------------- -------------- --------------
    1 O                    8.0000    -0.17255800    -0.11764155     0.00000000
    2 H                    1.0000    -0.17255800     1.70737395     0.00000000
    3 H                    1.0000     1.55302200    -0.76624155     0.00000000

 Vector    1  Occ=1.999990D+00  E=-2.056015D+01  Symmetry=a

 Vector    2  Occ=1.998916D+00  E=-1.356999D+00  Symmetry=a

 Vector    3  Occ=1.980804D+00  E=-7.526032D-01  Symmetry=a

 Vector    4  Occ=1.976947D+00  E=-5.917618D-01  Symmetry=a

 Vector    5  Occ=1.976400D+00  E=-5.317195D-01  Symmetry=a

 Vector    6  Occ=2.450860D-02  E=-2.640139D-02  Symmetry=a

 Vector    7  Occ=2.356548D-02  E=-2.504577D-02  Symmetry=a

 Vector    8  Occ=1.886959D-02  E=-1.699799D-02  Symmetry=a

 Vector    9  Occ=0.000000D+00  E= 7.109161D-02  Symmetry=a

 Vector   10  Occ=0.000000D+00  E= 8.760832D-02  Symmetry=a

 Vector   11  Occ=0.000000D+00  E= 2.382411D-01  Symmetry=a

 Vector   12  Occ=0.000000D+00  E= 2.779640D-01  Symmetry=a

 Vector   13  Occ=0.000000D+00  E= 3.161829D-01  Symmetry=a

 Vector   14  Occ=0.000000D+00  E= 4.910135D-01  Symmetry=a

 Vector   15  Occ=0.000000D+00  E= 5.002381D-01  Symmetry=a

 Vector   16  Occ=0.000000D+00  E= 6.154089D-01  Symmetry=a

 Vector   17  Occ=0.000000D+00  E= 9.950658D-01  Symmetry=a

 Vector   18  Occ=0.000000D+00  E= 1.043279D+00  Symmetry=a

         Total SCF energy =    -76.049508162510

 Vector    2  Occ=2.000000D+00  E=-1.356999D+00

 Vector    3  Occ=2.000000D+00  E=-7.526032D-01

 Vector    4  Occ=2.000000D+00  E=-5.917618D-01

 Vector    5  Occ=2.000000D+00  E=-5.317195D-01

 Vector    6  Occ=0.000000D+00  E=-2.640139D-02

 Vector    7  Occ=0.000000D+00  E=-2.504577D-02

 Vector    8  Occ=0.000000D+00  E=-1.699799D-02

 Vector    9  Occ=0.000000D+00  E= 7.109161D-02

 Vector   10  Occ=0.000000D+00  E= 8.760832D-02

 Vector   11  Occ=0.000000D+00  E= 2.382411D-01

 Vector   12  Occ=0.000000D+00  E= 2.779640D-01

 Vector   13  Occ=0.000000D+00  E= 3.161829D-01

 Vector   14  Occ=0.000000D+00  E= 4.910135D-01

 Vector   15  Occ=0.000000D+00  E= 5.002381D-01

       Multipole analysis of the density wrt the origin
       ------------------------------------------------

     L   x y z        total         open         nuclear
     -   - - -        -----         ----         -------
     0   0 0 0     -0.000000      0.000000     10.000000

     1   1 0 0      0.666454      0.000000     -0.000000
     1   0 1 0      0.457286      0.000000      0.000000
     1   0 0 1     -0.000002      0.000000      0.000000

     2   2 0 0     -4.263188      0.000000      2.679864
     2   1 1 0     -0.870460      0.000000     -1.322211
     2   1 0 1      0.000006      0.000000      0.000000
     2   0 2 0     -3.630103      0.000000      3.612968
     2   0 1 1      0.000004      0.000000      0.000000

 CCSD total energy / hartree       =       -76.144515596499417
 Total times  cpu:       61.7s     wall:       87.2s
