============================== echo of input deck ==============================
 echo
 start H2O
 title "H2O"

 memory total 24 gb

 geometry units bohr
 symmetry c1
        O  0.00000000  0.00000000  0.00000000
        H  0.00000000  1.954057  0.00000000
        H  1.72558000 -0.64860000  0.00000000
 end

 basis spherical
   * library 6-311++G**
 end

 mcscf
   active  8
   actelec 10
   multiplicity 1
   maxiter 40
   vectors input h2o.mos
   vectors output h2o.mos
 end

 task mcscf

 scf
   vectors input h2o.mos
   vectors output h2o-trash.mos
   noscf
 end

 tce
   2eorb
   2emet 13
   ccsd
   maxiter 300
 end

 set tce:print_integrals T
 set tce:qorb 8
 set tce:qela 5
 set tce:qelb 5

# set tce:qducc T
# set tce:nactv 3
# set tce:nonhf T
# set tce:ducc_model 6

 set tce:printtol 0.02

 task tce
================================================================================

 Output coordinates in a.u. (scale by  1.000000000 to convert to a.u.)

  No.       Tag          Charge          X              Y              Z
 ---- ---------------- ---------- -------------- -------------- --------------
    1 O                    8.0000    -0.17255800    -0.13054570     0.00000000
    2 H                    1.0000    -0.17255800     1.82351130     0.00000000
    3 H                    1.0000     1.55302200    -0.77914570     0.00000000

 Vector    1  Occ=1.999990D+00  E=-2.056554D+01  Symmetry=a

 Vector    2  Occ=1.998801D+00  E=-1.341727D+00  Symmetry=a

 Vector    3  Occ=1.980121D+00  E=-7.350421D-01  Symmetry=a

 Vector    4  Occ=1.975906D+00  E=-5.863399D-01  Symmetry=a

 Vector    5  Occ=1.972438D+00  E=-5.292770D-01  Symmetry=a

 Vector    6  Occ=2.847996D-02  E=-2.870033D-02  Symmetry=a

 Vector    7  Occ=2.477013D-02  E=-2.581003D-02  Symmetry=a

 Vector    8  Occ=1.949419D-02  E=-1.701304D-02  Symmetry=a

 Vector    9  Occ=0.000000D+00  E= 7.188060D-02  Symmetry=a

 Vector   10  Occ=0.000000D+00  E= 8.747937D-02  Symmetry=a

 Vector   11  Occ=0.000000D+00  E= 2.370951D-01  Symmetry=a

 Vector   12  Occ=0.000000D+00  E= 2.782286D-01  Symmetry=a

 Vector   13  Occ=0.000000D+00  E= 3.170544D-01  Symmetry=a

 Vector   14  Occ=0.000000D+00  E= 4.873473D-01  Symmetry=a

 Vector   15  Occ=0.000000D+00  E= 4.990028D-01  Symmetry=a

 Vector   16  Occ=0.000000D+00  E= 6.243618D-01  Symmetry=a

 Vector   17  Occ=0.000000D+00  E= 1.008231D+00  Symmetry=a

 Vector   18  Occ=0.000000D+00  E= 1.062820D+00  Symmetry=a

         Total SCF energy =    -76.041864701081

 Vector    2  Occ=2.000000D+00  E=-1.341727D+00

 Vector    3  Occ=2.000000D+00  E=-7.350421D-01

 Vector    4  Occ=2.000000D+00  E=-5.863399D-01

 Vector    5  Occ=2.000000D+00  E=-5.292770D-01

 Vector    6  Occ=0.000000D+00  E=-2.870033D-02

 Vector    7  Occ=0.000000D+00  E=-2.581003D-02

 Vector    8  Occ=0.000000D+00  E=-1.701304D-02

 Vector    9  Occ=0.000000D+00  E= 7.188060D-02

 Vector   10  Occ=0.000000D+00  E= 8.747937D-02

 Vector   11  Occ=0.000000D+00  E= 2.370951D-01

 Vector   12  Occ=0.000000D+00  E= 2.782286D-01

 Vector   13  Occ=0.000000D+00  E= 3.170544D-01

 Vector   14  Occ=0.000000D+00  E= 4.873473D-01

 Vector   15  Occ=0.000000D+00  E= 4.990028D-01

 Vector   16  Occ=0.000000D+00  E= 6.243618D-01

       Multipole analysis of the density wrt the origin
       ------------------------------------------------

     L   x y z        total         open         nuclear
     -   - - -        -----         ----         -------
     0   0 0 0     -0.000000      0.000000     10.000000

     1   1 0 0      0.660402      0.000000     -0.000000
     1   0 1 0      0.480774      0.000000      0.000000
     1   0 0 1     -0.000000      0.000000      0.000000

     2   2 0 0     -4.320152      0.000000      2.679864
     2   1 1 0     -0.884914      0.000000     -1.344478
     2   1 0 1      0.000000      0.000000      0.000000
     2   0 2 0     -3.525161      0.000000      4.068599
     2   0 1 1      0.000000      0.000000      0.000000

 CCSD total energy / hartree       =       -76.140231473537014
 Total times  cpu:       53.3s     wall:       74.7s
