============================== echo of input deck ==============================
 echo
 start H2O
 title "H2O"

 memory total 24 gb

 geometry units bohr
 symmetry c1
        O  0.00000000  0.00000000  0.00000000
        H  0.00000000  2.01857775  0.00000000
        H  1.72558000 -0.64860000  0.00000000
 end

 basis spherical
   * library 6-311++G**
 end

 mcscf
   active  8
   actelec 10
   multiplicity 1
   maxiter 40
   vectors input h2o.mos
   vectors output h2o.mos
 end

 task mcscf

 scf
   vectors input h2o.mos
   vectors output h2o-trash.mos
   noscf
 end

 tce
   2eorb
   2emet 13
   ccsd
   maxiter 300
 end

 set tce:print_integrals T
 set tce:qorb 8
 set tce:qela 5
 set tce:qelb 5

# set tce:qducc T
# set tce:nactv 3
# set tce:nonhf T
# set tce:ducc_model 6

 set tce:printtol 0.02

 task tce
================================================================================

 Output coordinates in a.u. (scale by  1.000000000 to convert to a.u.)

  No.       Tag          Charge          X              Y              Z
 ---- ---------------- ---------- -------------- -------------- --------------
    1 O                    8.0000    -0.17255800    -0.13699778     0.00000000
    2 H                    1.0000    -0.17255800     1.88157998     0.00000000
    3 H                    1.0000     1.55302200    -0.78559778     0.00000000

 Vector    1  Occ=1.999990D+00  E=-2.056804D+01  Symmetry=a

 Vector    2  Occ=1.998739D+00  E=-1.335334D+00  Symmetry=a

 Vector    3  Occ=1.979804D+00  E=-7.268806D-01  Symmetry=a

 Vector    4  Occ=1.975649D+00  E=-5.834776D-01  Symmetry=a

 Vector    5  Occ=1.969829D+00  E=-5.282830D-01  Symmetry=a

 Vector    6  Occ=3.116105D-02  E=-3.025026D-02  Symmetry=a

 Vector    7  Occ=2.504664D-02  E=-2.591005D-02  Symmetry=a

 Vector    8  Occ=1.978204D-02  E=-1.700258D-02  Symmetry=a

 Vector    9  Occ=0.000000D+00  E= 7.227197D-02  Symmetry=a

 Vector   10  Occ=0.000000D+00  E= 8.740959D-02  Symmetry=a

 Vector   11  Occ=0.000000D+00  E= 2.367758D-01  Symmetry=a

 Vector   12  Occ=0.000000D+00  E= 2.784207D-01  Symmetry=a

 Vector   13  Occ=0.000000D+00  E= 3.174231D-01  Symmetry=a

 Vector   14  Occ=0.000000D+00  E= 4.854839D-01  Symmetry=a

 Vector   15  Occ=0.000000D+00  E= 4.992842D-01  Symmetry=a

 Vector   16  Occ=0.000000D+00  E= 6.289305D-01  Symmetry=a

 Vector   17  Occ=0.000000D+00  E= 1.011850D+00  Symmetry=a

 Vector   18  Occ=0.000000D+00  E= 1.075838D+00  Symmetry=a

         Total SCF energy =    -76.035784963440

 Vector    2  Occ=2.000000D+00  E=-1.335334D+00

 Vector    3  Occ=2.000000D+00  E=-7.268806D-01

 Vector    4  Occ=2.000000D+00  E=-5.834776D-01

 Vector    5  Occ=2.000000D+00  E=-5.282830D-01

 Vector    6  Occ=0.000000D+00  E=-3.025026D-02

 Vector    7  Occ=0.000000D+00  E=-2.591005D-02

 Vector    8  Occ=0.000000D+00  E=-1.700258D-02

 Vector    9  Occ=0.000000D+00  E= 7.227197D-02

 Vector   10  Occ=0.000000D+00  E= 8.740959D-02

 Vector   11  Occ=0.000000D+00  E= 2.367758D-01

 Vector   12  Occ=0.000000D+00  E= 2.784207D-01

 Vector   13  Occ=0.000000D+00  E= 3.174231D-01

 Vector   14  Occ=0.000000D+00  E= 4.854839D-01

 Vector   15  Occ=0.000000D+00  E= 4.992842D-01

 Vector   16  Occ=0.000000D+00  E= 6.289305D-01

       Multipole analysis of the density wrt the origin
       ------------------------------------------------

     L   x y z        total         open         nuclear
     -   - - -        -----         ----         -------
     0   0 0 0     -0.000000      0.000000     10.000000

     1   1 0 0      0.657513      0.000000     -0.000000
     1   0 1 0      0.491028      0.000000     -0.000000
     1   0 0 1     -0.000000      0.000000      0.000000

     2   2 0 0     -4.347192      0.000000      2.679864
     2   1 1 0     -0.891520      0.000000     -1.355612
     2   1 0 1      0.000000      0.000000      0.000000
     2   0 2 0     -3.470349      0.000000      4.307654
     2   0 1 1      0.000000      0.000000      0.000000

 CCSD total energy / hartree       =       -76.135872038616370
 Total times  cpu:       54.2s     wall:       75.6s
