============================== echo of input deck ==============================
 echo
 start H2O
 title "H2O"

 memory total 24 gb

 geometry units bohr
 symmetry c1
        O  0.00000000  0.00000000  0.00000000
        H  0.00000000  2.09231575  0.00000000
        H  1.72558000 -0.64860000  0.00000000
 end

 basis spherical
   * library 6-311++G**
 end

 mcscf
   active  8
   actelec 10
   multiplicity 1
   maxiter 40
   vectors input h2o.mos
   vectors output h2o.mos
 end

 task mcscf

 scf
   vectors input h2o.mos
   vectors output h2o-trash.mos
   noscf
 end

 tce
   2eorb
   2emet 13
   ccsd
   maxiter 300
 end

 set tce:print_integrals T
 set tce:qorb 8
 set tce:qela 5
 set tce:qelb 5

# set tce:qducc T
# set tce:nactv 3
# set tce:nonhf T
# set tce:ducc_model 6

 set tce:printtol 0.02

 task tce
================================================================================

 Output coordinates in a.u. (scale by  1.000000000 to convert to a.u.)

  No.       Tag          Charge          X              Y              Z
 ---- ---------------- ---------- -------------- -------------- --------------
    1 O                    8.0000    -0.17255800    -0.14437158     0.00000000
    2 H                    1.0000    -0.17255800     1.94794418     0.00000000
    3 H                    1.0000     1.55302200    -0.79297158     0.00000000

 Vector    1  Occ=1.999990D+00  E=-2.057077D+01  Symmetry=a

 Vector    2  Occ=1.998664D+00  E=-1.328921D+00  Symmetry=a

 Vector    3  Occ=1.979465D+00  E=-7.181190D-01  Symmetry=a

 Vector    4  Occ=1.975361D+00  E=-5.800286D-01  Symmetry=a

 Vector    5  Occ=1.966493D+00  E=-5.273264D-01  Symmetry=a

 Vector    6  Occ=3.459491D-02  E=-3.215506D-02  Symmetry=a

 Vector    7  Occ=2.534653D-02  E=-2.599242D-02  Symmetry=a

 Vector    8  Occ=2.008584D-02  E=-1.697439D-02  Symmetry=a

 Vector    9  Occ=0.000000D+00  E= 7.270823D-02  Symmetry=a

 Vector   10  Occ=0.000000D+00  E= 8.732803D-02  Symmetry=a

 Vector   11  Occ=0.000000D+00  E= 2.365549D-01  Symmetry=a

 Vector   12  Occ=0.000000D+00  E= 2.786865D-01  Symmetry=a

 Vector   13  Occ=0.000000D+00  E= 3.178085D-01  Symmetry=a

 Vector   14  Occ=0.000000D+00  E= 4.837529D-01  Symmetry=a

 Vector   15  Occ=0.000000D+00  E= 4.997161D-01  Symmetry=a

 Vector   16  Occ=0.000000D+00  E= 6.340397D-01  Symmetry=a

 Vector   17  Occ=0.000000D+00  E= 1.014919D+00  Symmetry=a

 Vector   18  Occ=0.000000D+00  E= 1.091894D+00  Symmetry=a

         Total SCF energy =    -76.027548885472

 Vector    2  Occ=2.000000D+00  E=-1.328921D+00

 Vector    3  Occ=2.000000D+00  E=-7.181190D-01

 Vector    4  Occ=2.000000D+00  E=-5.800286D-01

 Vector    5  Occ=2.000000D+00  E=-5.273264D-01

 Vector    6  Occ=0.000000D+00  E=-3.215506D-02

 Vector    7  Occ=0.000000D+00  E=-2.599242D-02

 Vector    8  Occ=0.000000D+00  E=-1.697439D-02

 Vector    9  Occ=0.000000D+00  E= 7.270823D-02

 Vector   10  Occ=0.000000D+00  E= 8.732803D-02

 Vector   11  Occ=0.000000D+00  E= 2.365549D-01

 Vector   12  Occ=0.000000D+00  E= 2.786865D-01

 Vector   13  Occ=0.000000D+00  E= 3.178085D-01

 Vector   14  Occ=0.000000D+00  E= 4.837529D-01

 Vector   15  Occ=0.000000D+00  E= 4.997161D-01

 Vector   16  Occ=0.000000D+00  E= 6.340397D-01

       Multipole analysis of the density wrt the origin
       ------------------------------------------------

     L   x y z        total         open         nuclear
     -   - - -        -----         ----         -------
     0   0 0 0     -0.000000      0.000000     10.000000

     1   1 0 0      0.654328      0.000000     -0.000000
     1   0 1 0      0.501281      0.000000      0.000000
     1   0 0 1     -0.000000      0.000000      0.000000

     2   2 0 0     -4.376829      0.000000      2.679864
     2   1 1 0     -0.898473      0.000000     -1.368336
     2   1 0 1      0.000000      0.000000      0.000000
     2   0 2 0     -3.406619      0.000000      4.590036
     2   0 1 1      0.000000      0.000000      0.000000

 CCSD total energy / hartree       =       -76.129637399202991
 Total times  cpu:       54.4s     wall:       75.7s
