============================== echo of input deck ==============================
 echo
 start H2O
 title "H2O"

 memory total 24 gb

 geometry units bohr
 symmetry c1
        O  0.00000000  0.00000000  0.00000000
        H  0.00000000  2.101533  0.00000000
        H  1.72558000 -0.64860000  0.00000000
 end

 basis spherical
   * library 6-311++G**
 end

 mcscf
   active  8
   actelec 10
   multiplicity 1
   maxiter 40
   vectors input h2o.mos
   vectors output h2o.mos
 end

 task mcscf

 scf
   vectors input h2o.mos
   vectors output h2o-trash.mos
   noscf
 end

 tce
   2eorb
   2emet 13
   ccsd
   maxiter 300
 end

 set tce:print_integrals T
 set tce:qorb 8
 set tce:qela 5
 set tce:qelb 5

# set tce:qducc T
# set tce:nactv 3
# set tce:nonhf T
# set tce:ducc_model 6

 set tce:printtol 0.02

 task tce
================================================================================

 Output coordinates in a.u. (scale by  1.000000000 to convert to a.u.)

  No.       Tag          Charge          X              Y              Z
 ---- ---------------- ---------- -------------- -------------- --------------
    1 O                    8.0000    -0.17255800    -0.14529330     0.00000000
    2 H                    1.0000    -0.17255800     1.95623970     0.00000000
    3 H                    1.0000     1.55302200    -0.79389330     0.00000000

 Vector    1  Occ=1.999990D+00  E=-2.057110D+01  Symmetry=a

 Vector    2  Occ=1.998654D+00  E=-1.328181D+00  Symmetry=a

 Vector    3  Occ=1.979425D+00  E=-7.170684D-01  Symmetry=a

 Vector    4  Occ=1.975326D+00  E=-5.795822D-01  Symmetry=a

 Vector    5  Occ=1.966046D+00  E=-5.272199D-01  Symmetry=a

 Vector    6  Occ=3.505454D-02  E=-3.240215D-02  Symmetry=a

 Vector    7  Occ=2.538318D-02  E=-2.600151D-02  Symmetry=a

 Vector    8  Occ=2.012179D-02  E=-1.696961D-02  Symmetry=a

 Vector    9  Occ=0.000000D+00  E= 7.276063D-02  Symmetry=a

 Vector   10  Occ=0.000000D+00  E= 8.731748D-02  Symmetry=a

 Vector   11  Occ=0.000000D+00  E= 2.365358D-01  Symmetry=a

 Vector   12  Occ=0.000000D+00  E= 2.787225D-01  Symmetry=a

 Vector   13  Occ=0.000000D+00  E= 3.178545D-01  Symmetry=a

 Vector   14  Occ=0.000000D+00  E= 4.835665D-01  Symmetry=a

 Vector   15  Occ=0.000000D+00  E= 4.997675D-01  Symmetry=a

 Vector   16  Occ=0.000000D+00  E= 6.346536D-01  Symmetry=a

 Vector   17  Occ=0.000000D+00  E= 1.015256D+00  Symmetry=a

 Vector   18  Occ=0.000000D+00  E= 1.093941D+00  Symmetry=a

         Total SCF energy =    -76.026440879020

 Vector    2  Occ=2.000000D+00  E=-1.328181D+00

 Vector    3  Occ=2.000000D+00  E=-7.170684D-01

 Vector    4  Occ=2.000000D+00  E=-5.795822D-01

 Vector    5  Occ=2.000000D+00  E=-5.272199D-01

 Vector    6  Occ=0.000000D+00  E=-3.240215D-02

 Vector    7  Occ=0.000000D+00  E=-2.600151D-02

 Vector    8  Occ=0.000000D+00  E=-1.696961D-02

 Vector    9  Occ=0.000000D+00  E= 7.276063D-02

 Vector   10  Occ=0.000000D+00  E= 8.731748D-02

 Vector   11  Occ=0.000000D+00  E= 2.365358D-01

 Vector   12  Occ=0.000000D+00  E= 2.787225D-01

 Vector   13  Occ=0.000000D+00  E= 3.178545D-01

 Vector   14  Occ=0.000000D+00  E= 4.835665D-01

 Vector   15  Occ=0.000000D+00  E= 4.997675D-01

 Vector   16  Occ=0.000000D+00  E= 6.346536D-01

       Multipole analysis of the density wrt the origin
       ------------------------------------------------

     L   x y z        total         open         nuclear
     -   - - -        -----         ----         -------
     0   0 0 0     -0.000000      0.000000     10.000000

     1   1 0 0      0.653936      0.000000     -0.000000
     1   0 1 0      0.502445      0.000000      0.000000
     1   0 0 1     -0.000000      0.000000      0.000000

     2   2 0 0     -4.380444      0.000000      2.679864
     2   1 1 0     -0.899290      0.000000     -1.369926
     2   1 0 1      0.000000      0.000000      0.000000
     2   0 2 0     -3.398603      0.000000      4.626021
     2   0 1 1      0.000000      0.000000      0.000000

 CCSD total energy / hartree       =       -76.128782602949698
 Total times  cpu:       54.7s     wall:       75.9s
