============================== echo of input deck ==============================
 echo
 start H2O
 title "H2O"

 memory total 24 gb

 geometry units bohr
 symmetry c1
        O  0.00000000  0.00000000  0.00000000
        H  0.00000000  2.12918475  0.00000000
        H  1.72558000 -0.64860000  0.00000000
 end

 basis spherical
   * library 6-311++G**
 end

 mcscf
   active  8
   actelec 10
   multiplicity 1
   maxiter 40
   vectors input h2o.mos
   vectors output h2o.mos
 end

 task mcscf

 scf
   vectors input h2o.mos
   vectors output h2o-trash.mos
   noscf
 end

 tce
   2eorb
   2emet 13
   ccsd
   maxiter 300
 end

 set tce:print_integrals T
 set tce:qorb 8
 set tce:qela 5
 set tce:qelb 5

# set tce:qducc T
# set tce:nactv 3
# set tce:nonhf T
# set tce:ducc_model 6

 set tce:printtol 0.02

 task tce
================================================================================

 Output coordinates in a.u. (scale by  1.000000000 to convert to a.u.)

  No.       Tag          Charge          X              Y              Z
 ---- ---------------- ---------- -------------- -------------- --------------
    1 O                    8.0000    -0.17255800    -0.14805848     0.00000000
    2 H                    1.0000    -0.17255800     1.98112628     0.00000000
    3 H                    1.0000     1.55302200    -0.79665848     0.00000000

 Vector    1  Occ=1.999990D+00  E=-2.057208D+01  Symmetry=a

 Vector    2  Occ=1.998625D+00  E=-1.326043D+00  Symmetry=a

 Vector    3  Occ=1.979307D+00  E=-7.139791D-01  Symmetry=a

 Vector    4  Occ=1.975220D+00  E=-5.782211D-01  Symmetry=a

 Vector    5  Occ=1.964662D+00  E=-5.269189D-01  Symmetry=a

 Vector    6  Occ=3.647667D-02  E=-3.315602D-02  Symmetry=a

 Vector    7  Occ=2.549203D-02  E=-2.602771D-02  Symmetry=a

 Vector    8  Occ=2.022668D-02  E=-1.695364D-02  Symmetry=a

 Vector    9  Occ=0.000000D+00  E= 7.291679D-02  Symmetry=a

 Vector   10  Occ=0.000000D+00  E= 8.728602D-02  Symmetry=a

 Vector   11  Occ=0.000000D+00  E= 2.364882D-01  Symmetry=a

 Vector   12  Occ=0.000000D+00  E= 2.788346D-01  Symmetry=a

 Vector   13  Occ=0.000000D+00  E= 3.179898D-01  Symmetry=a

 Vector   14  Occ=0.000000D+00  E= 4.830534D-01  Symmetry=a

 Vector   15  Occ=0.000000D+00  E= 4.999164D-01  Symmetry=a

 Vector   16  Occ=0.000000D+00  E= 6.364715D-01  Symmetry=a

 Vector   17  Occ=0.000000D+00  E= 1.016230D+00  Symmetry=a

 Vector   18  Occ=0.000000D+00  E= 1.100122D+00  Symmetry=a

         Total SCF energy =    -76.023028124285

 Vector    2  Occ=2.000000D+00  E=-1.326043D+00

 Vector    3  Occ=2.000000D+00  E=-7.139791D-01

 Vector    4  Occ=2.000000D+00  E=-5.782211D-01

 Vector    5  Occ=2.000000D+00  E=-5.269189D-01

 Vector    6  Occ=0.000000D+00  E=-3.315602D-02

 Vector    7  Occ=0.000000D+00  E=-2.602771D-02

 Vector    8  Occ=0.000000D+00  E=-1.695364D-02

 Vector    9  Occ=0.000000D+00  E= 7.291679D-02

 Vector   10  Occ=0.000000D+00  E= 8.728602D-02

 Vector   11  Occ=0.000000D+00  E= 2.364882D-01

 Vector   12  Occ=0.000000D+00  E= 2.788346D-01

 Vector   13  Occ=0.000000D+00  E= 3.179898D-01

 Vector   14  Occ=0.000000D+00  E= 4.830534D-01

 Vector   15  Occ=0.000000D+00  E= 4.999164D-01

 Vector   16  Occ=0.000000D+00  E= 6.364715D-01

       Multipole analysis of the density wrt the origin
       ------------------------------------------------

     L   x y z        total         open         nuclear
     -   - - -        -----         ----         -------
     0   0 0 0     -0.000000      0.000000     10.000000

     1   1 0 0      0.652770      0.000000     -0.000000
     1   0 1 0      0.505769      0.000000      0.000000
     1   0 0 1     -0.000000      0.000000      0.000000

     2   2 0 0     -4.391157      0.000000      2.679864
     2   1 1 0     -0.901671      0.000000     -1.374698
     2   1 0 1      0.000000      0.000000      0.000000
     2   0 2 0     -3.374533      0.000000      4.734897
     2   0 1 1      0.000000      0.000000      0.000000

 CCSD total energy / hartree       =       -76.126133683184094
 Total times  cpu:       55.6s     wall:       76.3s
