============================== echo of input deck ==============================
 echo
 start H2O
 title "H2O"

 memory total 24 gb

 geometry units bohr
 symmetry c1
        O  0.00000000  0.00000000  0.00000000
        H  0.00000000  2.175271  0.00000000
        H  1.72558000 -0.64860000  0.00000000
 end

 basis spherical
   * library 6-311++G**
 end

 mcscf
   active  8
   actelec 10
   multiplicity 1
   maxiter 40
   vectors input h2o.mos
   vectors output h2o.mos
 end

 task mcscf

 scf
   vectors input h2o.mos
   vectors output h2o-trash.mos
   noscf
 end

 tce
   2eorb
   2emet 13
   ccsd
   maxiter 300
 end

 set tce:print_integrals T
 set tce:qorb 8
 set tce:qela 5
 set tce:qelb 5

# set tce:qducc T
# set tce:nactv 3
# set tce:nonhf T
# set tce:ducc_model 6

 set tce:printtol 0.02

 task tce
================================================================================

 Output coordinates in a.u. (scale by  1.000000000 to convert to a.u.)

  No.       Tag          Charge          X              Y              Z
 ---- ---------------- ---------- -------------- -------------- --------------
    1 O                    8.0000    -0.17255800    -0.15266710     0.00000000
    2 H                    1.0000    -0.17255800     2.02260390     0.00000000
    3 H                    1.0000     1.55302200    -0.80126710     0.00000000

 Vector    1  Occ=1.999990D+00  E=-2.057369D+01  Symmetry=a

 Vector    2  Occ=1.998576D+00  E=-1.322735D+00  Symmetry=a

 Vector    3  Occ=1.979120D+00  E=-7.090435D-01  Symmetry=a

 Vector    4  Occ=1.975048D+00  E=-5.758761D-01  Symmetry=a

 Vector    5  Occ=1.962206D+00  E=-5.264788D-01  Symmetry=a

 Vector    6  Occ=3.899949D-02  E=-3.445596D-02  Symmetry=a

 Vector    7  Occ=2.566957D-02  E=-2.606854D-02  Symmetry=a

 Vector    8  Occ=2.039116D-02  E=-1.692159D-02  Symmetry=a

 Vector    9  Occ=0.000000D+00  E= 7.317429D-02  Symmetry=a

 Vector   10  Occ=0.000000D+00  E= 8.723473D-02  Symmetry=a

 Vector   11  Occ=0.000000D+00  E= 2.364385D-01  Symmetry=a

 Vector   12  Occ=0.000000D+00  E= 2.790339D-01  Symmetry=a

 Vector   13  Occ=0.000000D+00  E= 3.182072D-01  Symmetry=a

 Vector   14  Occ=0.000000D+00  E= 4.823530D-01  Symmetry=a

 Vector   15  Occ=0.000000D+00  E= 5.001391D-01  Symmetry=a

 Vector   16  Occ=0.000000D+00  E= 6.394157D-01  Symmetry=a

 Vector   17  Occ=0.000000D+00  E= 1.017785D+00  Symmetry=a

 Vector   18  Occ=0.000000D+00  E= 1.110519D+00  Symmetry=a

         Total SCF energy =    -76.017079178585

 Vector    2  Occ=2.000000D+00  E=-1.322735D+00

 Vector    3  Occ=2.000000D+00  E=-7.090435D-01

 Vector    4  Occ=2.000000D+00  E=-5.758761D-01

 Vector    5  Occ=2.000000D+00  E=-5.264788D-01

 Vector    6  Occ=0.000000D+00  E=-3.445596D-02

 Vector    7  Occ=0.000000D+00  E=-2.606854D-02

 Vector    8  Occ=0.000000D+00  E=-1.692159D-02

 Vector    9  Occ=0.000000D+00  E= 7.317429D-02

 Vector   10  Occ=0.000000D+00  E= 8.723473D-02

 Vector   11  Occ=0.000000D+00  E= 2.364385D-01

 Vector   12  Occ=0.000000D+00  E= 2.790339D-01

 Vector   13  Occ=0.000000D+00  E= 3.182072D-01

 Vector   14  Occ=0.000000D+00  E= 4.823530D-01

 Vector   15  Occ=0.000000D+00  E= 5.001391D-01

       Multipole analysis of the density wrt the origin
       ------------------------------------------------

     L   x y z        total         open         nuclear
     -   - - -        -----         ----         -------
     0   0 0 0     -0.000000      0.000000     10.000000

     1   1 0 0      0.650861      0.000000     -0.000000
     1   0 1 0      0.510721      0.000000      0.000000
     1   0 0 1     -0.000000      0.000000      0.000000

     2   2 0 0     -4.408573      0.000000      2.679864
     2   1 1 0     -0.905393      0.000000     -1.382650
     2   1 0 1      0.000000      0.000000      0.000000
     2   0 2 0     -3.334433      0.000000      4.919413
     2   0 1 1      0.000000      0.000000      0.000000

 CCSD total energy / hartree       =       -76.121472666572885
 Total times  cpu:       56.1s     wall:       77.3s
