============================== echo of input deck ==============================
 echo
 start H2O
 title "H2O"

 memory total 24 gb

 geometry units bohr
 symmetry c1
        O  0.00000000  0.00000000  0.00000000
        H  0.00000000  2.20292275  0.00000000
        H  1.72558000 -0.64860000  0.00000000
 end

 basis spherical
   * library 6-311++G**
 end

 mcscf
   active  8
   actelec 10
   multiplicity 1
   maxiter 40
   vectors input h2o.mos
   vectors output h2o.mos
 end

 task mcscf

 scf
   vectors input h2o.mos
   vectors output h2o-trash.mos
   noscf
 end

 tce
   2eorb
   2emet 13
   ccsd
   maxiter 300
 end

 set tce:print_integrals T
 set tce:qorb 8
 set tce:qela 5
 set tce:qelb 5

# set tce:qducc T
# set tce:nactv 3
# set tce:nonhf T
# set tce:ducc_model 6

 set tce:printtol 0.02

 task tce
================================================================================

 Output coordinates in a.u. (scale by  1.000000000 to convert to a.u.)

  No.       Tag          Charge          X              Y              Z
 ---- ---------------- ---------- -------------- -------------- --------------
    1 O                    8.0000    -0.17255800    -0.15543228     0.00000000
    2 H                    1.0000    -0.17255800     2.04749048     0.00000000
    3 H                    1.0000     1.55302200    -0.80403228     0.00000000

 Vector    1  Occ=1.999990D+00  E=-2.057464D+01  Symmetry=a

 Vector    2  Occ=1.998546D+00  E=-1.320898D+00  Symmetry=a

 Vector    3  Occ=1.979015D+00  E=-7.062138D-01  Symmetry=a

 Vector    4  Occ=1.974946D+00  E=-5.744202D-01  Symmetry=a

 Vector    5  Occ=1.960634D+00  E=-5.262522D-01  Symmetry=a

 Vector    6  Occ=4.061135D-02  E=-3.526330D-02  Symmetry=a

 Vector    7  Occ=2.577365D-02  E=-2.609164D-02  Symmetry=a

 Vector    8  Occ=2.048328D-02  E=-1.689912D-02  Symmetry=a

 Vector    9  Occ=0.000000D+00  E= 7.332756D-02  Symmetry=a

 Vector   10  Occ=0.000000D+00  E= 8.720493D-02  Symmetry=a

 Vector   11  Occ=0.000000D+00  E= 2.364243D-01  Symmetry=a

 Vector   12  Occ=0.000000D+00  E= 2.791605D-01  Symmetry=a

 Vector   13  Occ=0.000000D+00  E= 3.183332D-01  Symmetry=a

 Vector   14  Occ=0.000000D+00  E= 4.820254D-01  Symmetry=a

 Vector   15  Occ=0.000000D+00  E= 5.002530D-01  Symmetry=a

 Vector   16  Occ=0.000000D+00  E= 6.411260D-01  Symmetry=a

 Vector   17  Occ=0.000000D+00  E= 1.018699D+00  Symmetry=a

 Vector   18  Occ=0.000000D+00  E= 1.116790D+00  Symmetry=a

         Total SCF energy =    -76.013376482958

 Vector    2  Occ=2.000000D+00  E=-1.320898D+00

 Vector    3  Occ=2.000000D+00  E=-7.062138D-01

 Vector    4  Occ=2.000000D+00  E=-5.744202D-01

 Vector    5  Occ=2.000000D+00  E=-5.262522D-01

 Vector    6  Occ=0.000000D+00  E=-3.526330D-02

 Vector    7  Occ=0.000000D+00  E=-2.609164D-02

 Vector    8  Occ=0.000000D+00  E=-1.689912D-02

 Vector    9  Occ=0.000000D+00  E= 7.332756D-02

 Vector   10  Occ=0.000000D+00  E= 8.720493D-02

 Vector   11  Occ=0.000000D+00  E= 2.364243D-01

 Vector   12  Occ=0.000000D+00  E= 2.791605D-01

 Vector   13  Occ=0.000000D+00  E= 3.183332D-01

 Vector   14  Occ=0.000000D+00  E= 4.820254D-01

 Vector   15  Occ=0.000000D+00  E= 5.002530D-01

       Multipole analysis of the density wrt the origin
       ------------------------------------------------

     L   x y z        total         open         nuclear
     -   - - -        -----         ----         -------
     0   0 0 0     -0.000000      0.000000     10.000000

     1   1 0 0      0.649737      0.000000     -0.000000
     1   0 1 0      0.513322      0.000000      0.000000
     1   0 0 1     -0.000000      0.000000      0.000000

     2   2 0 0     -4.418754      0.000000      2.679864
     2   1 1 0     -0.907470      0.000000     -1.387422
     2   1 0 1      0.000000      0.000000      0.000000
     2   0 2 0     -3.310458      0.000000      5.031959
     2   0 1 1      0.000000      0.000000      0.000000

 CCSD total energy / hartree       =       -76.118552370238845
 Total times  cpu:       56.0s     wall:       77.7s
