============================== echo of input deck ==============================
 echo
 start H2O
 title "H2O"

 memory total 24 gb

 geometry units bohr
 symmetry c1
        O  0.00000000  0.00000000  0.00000000
        H  0.00000000  2.21214  0.00000000
        H  1.72558000 -0.64860000  0.00000000
 end

 basis spherical
   * library 6-311++G**
 end

 mcscf
   active  8
   actelec 10
   multiplicity 1
   maxiter 40
   vectors input h2o.mos
   vectors output h2o.mos
 end

 task mcscf

 scf
   vectors input h2o.mos
   vectors output h2o-trash.mos
   noscf
 end

 tce
   2eorb
   2emet 13
   ccsd
   maxiter 300
 end

 set tce:print_integrals T
 set tce:qorb 8
 set tce:qela 5
 set tce:qelb 5

# set tce:qducc T
# set tce:nactv 3
# set tce:nonhf T
# set tce:ducc_model 6

 set tce:printtol 0.02

 task tce
================================================================================

 Output coordinates in a.u. (scale by  1.000000000 to convert to a.u.)

  No.       Tag          Charge          X              Y              Z
 ---- ---------------- ---------- -------------- -------------- --------------
    1 O                    8.0000    -0.17255800    -0.15635400     0.00000000
    2 H                    1.0000    -0.17255800     2.05578600     0.00000000
    3 H                    1.0000     1.55302200    -0.80495400     0.00000000

 Vector    1  Occ=1.999990D+00  E=-2.057495D+01  Symmetry=a

 Vector    2  Occ=1.998536D+00  E=-1.320309D+00  Symmetry=a

 Vector    3  Occ=1.978981D+00  E=-7.052930D-01  Symmetry=a

 Vector    4  Occ=1.974913D+00  E=-5.739264D-01  Symmetry=a

 Vector    5  Occ=1.960093D+00  E=-5.261830D-01  Symmetry=a

 Vector    6  Occ=4.116596D-02  E=-3.553719D-02  Symmetry=a

 Vector    7  Occ=2.580791D-02  E=-2.609914D-02  Symmetry=a

 Vector    8  Occ=2.051284D-02  E=-1.689110D-02  Symmetry=a

 Vector    9  Occ=0.000000D+00  E= 7.337849D-02  Symmetry=a

 Vector   10  Occ=0.000000D+00  E= 8.719518D-02  Symmetry=a

 Vector   11  Occ=0.000000D+00  E= 2.364218D-01  Symmetry=a

 Vector   12  Occ=0.000000D+00  E= 2.792039D-01  Symmetry=a

 Vector   13  Occ=0.000000D+00  E= 3.183746D-01  Symmetry=a

 Vector   14  Occ=0.000000D+00  E= 4.819314D-01  Symmetry=a

 Vector   15  Occ=0.000000D+00  E= 5.002871D-01  Symmetry=a

 Vector   16  Occ=0.000000D+00  E= 6.416861D-01  Symmetry=a

 Vector   17  Occ=0.000000D+00  E= 1.019003D+00  Symmetry=a

 Vector   18  Occ=0.000000D+00  E= 1.118884D+00  Symmetry=a

         Total SCF energy =    -76.012122927693

 Vector    2  Occ=2.000000D+00  E=-1.320309D+00

 Vector    3  Occ=2.000000D+00  E=-7.052930D-01

 Vector    4  Occ=2.000000D+00  E=-5.739264D-01

 Vector    5  Occ=2.000000D+00  E=-5.261830D-01

 Vector    6  Occ=0.000000D+00  E=-3.553719D-02

 Vector    7  Occ=0.000000D+00  E=-2.609914D-02

 Vector    8  Occ=0.000000D+00  E=-1.689110D-02

 Vector    9  Occ=0.000000D+00  E= 7.337849D-02

 Vector   10  Occ=0.000000D+00  E= 8.719518D-02

 Vector   11  Occ=0.000000D+00  E= 2.364218D-01

 Vector   12  Occ=0.000000D+00  E= 2.792039D-01

 Vector   13  Occ=0.000000D+00  E= 3.183746D-01

 Vector   14  Occ=0.000000D+00  E= 4.819314D-01

 Vector   15  Occ=0.000000D+00  E= 5.002871D-01

       Multipole analysis of the density wrt the origin
       ------------------------------------------------

     L   x y z        total         open         nuclear
     -   - - -        -----         ----         -------
     0   0 0 0     -0.000000      0.000000     10.000000

     1   1 0 0      0.649366      0.000000     -0.000000
     1   0 1 0      0.514124      0.000000      0.000000
     1   0 0 1     -0.000000      0.000000      0.000000

     2   2 0 0     -4.422102      0.000000      2.679864
     2   1 1 0     -0.908135      0.000000     -1.389013
     2   1 0 1      0.000000      0.000000      0.000000
     2   0 2 0     -3.302491      0.000000      5.069780
     2   0 1 1      0.000000      0.000000      0.000000

 CCSD total energy / hartree       =       -76.117561329458795
 Total times  cpu:       56.3s     wall:       78.1s
