============================== echo of input deck ==============================
 echo
 start H2O
 title "H2O"

 memory total 24 gb

 geometry units bohr
 symmetry c1
        O  0.00000000  0.00000000  0.00000000
        H  0.00000000  2.3411815  0.00000000
        H  1.72558000 -0.64860000  0.00000000
 end

 basis spherical
   * library 6-311++G**
 end

 mcscf
   active  8
   actelec 10
   multiplicity 1
   maxiter 40
   vectors input h2o.mos
   vectors output h2o.mos
 end

 task mcscf

 scf
   vectors input h2o.mos
   vectors output h2o-trash.mos
   noscf
 end

 tce
   2eorb
   2emet 13
   ccsd
   maxiter 300
 end

 set tce:print_integrals T
 set tce:qorb 8
 set tce:qela 5
 set tce:qelb 5

# set tce:qducc T
# set tce:nactv 3
# set tce:nonhf T
# set tce:ducc_model 6

 set tce:printtol 0.02

 task tce
================================================================================

 Output coordinates in a.u. (scale by  1.000000000 to convert to a.u.)

  No.       Tag          Charge          X              Y              Z
 ---- ---------------- ---------- -------------- -------------- --------------
    1 O                    8.0000    -0.17255800    -0.16925815     0.00000000
    2 H                    1.0000    -0.17255800     2.17192335     0.00000000
    3 H                    1.0000     1.55302200    -0.81785815     0.00000000

 Vector    1  Occ=1.999991D+00  E=-2.057922D+01  Symmetry=a

 Vector    2  Occ=1.998394D+00  E=-1.313209D+00  Symmetry=a

 Vector    3  Occ=1.978573D+00  E=-6.935981D-01  Symmetry=a

 Vector    4  Occ=1.974471D+00  E=-5.665271D-01  Symmetry=a

 Vector    5  Occ=1.951492D+00  E=-5.255206D-01  Symmetry=a

 Vector    6  Occ=4.995575D-02  E=-3.962028D-02  Symmetry=a

 Vector    7  Occ=2.626239D-02  E=-2.619322D-02  Symmetry=a

 Vector    8  Occ=2.086147D-02  E=-1.675339D-02  Symmetry=a

 Vector    9  Occ=0.000000D+00  E= 7.405521D-02  Symmetry=a

 Vector   10  Occ=0.000000D+00  E= 8.706562D-02  Symmetry=a

 Vector   11  Occ=0.000000D+00  E= 2.364938D-01  Symmetry=a

 Vector   12  Occ=0.000000D+00  E= 2.798470D-01  Symmetry=a

 Vector   13  Occ=0.000000D+00  E= 3.189114D-01  Symmetry=a

 Vector   14  Occ=0.000000D+00  E= 4.813133D-01  Symmetry=a

 Vector   15  Occ=0.000000D+00  E= 5.005360D-01  Symmetry=a

 Vector   16  Occ=0.000000D+00  E= 6.487477D-01  Symmetry=a

 Vector   17  Occ=0.000000D+00  E= 1.023247D+00  Symmetry=a

 Vector   18  Occ=0.000000D+00  E= 1.147793D+00  Symmetry=a

         Total SCF energy =    -75.993814080927

 Vector    2  Occ=2.000000D+00  E=-1.313209D+00

 Vector    3  Occ=2.000000D+00  E=-6.935981D-01

 Vector    4  Occ=2.000000D+00  E=-5.665271D-01

 Vector    5  Occ=2.000000D+00  E=-5.255206D-01

 Vector    6  Occ=0.000000D+00  E=-3.962028D-02

 Vector    7  Occ=0.000000D+00  E=-2.619322D-02

 Vector    8  Occ=0.000000D+00  E=-1.675339D-02

 Vector    9  Occ=0.000000D+00  E= 7.405521D-02

 Vector   10  Occ=0.000000D+00  E= 8.706562D-02

 Vector   11  Occ=0.000000D+00  E= 2.364938D-01

 Vector   12  Occ=0.000000D+00  E= 2.798470D-01

 Vector   13  Occ=0.000000D+00  E= 3.189114D-01

 Vector   14  Occ=0.000000D+00  E= 4.813133D-01

 Vector   15  Occ=0.000000D+00  E= 5.005360D-01

       Multipole analysis of the density wrt the origin
       ------------------------------------------------

     L   x y z        total         open         nuclear
     -   - - -        -----         ----         -------
     0   0 0 0     -0.000000      0.000000     10.000000

     1   1 0 0      0.644376      0.000000     -0.000000
     1   0 1 0      0.521763      0.000000      0.000000
     1   0 0 1     -0.000000      0.000000      0.000000

     2   2 0 0     -4.466521      0.000000      2.679864
     2   1 1 0     -0.915924      0.000000     -1.411280
     2   1 0 1      0.000000      0.000000      0.000000
     2   0 2 0     -3.193314      0.000000      5.615330
     2   0 1 1      0.000000      0.000000      0.000000

 CCSD total energy / hartree       =       -76.103031545979348
 Total times  cpu:       58.6s     wall:       81.3s
