============================== echo of input deck ==============================
 echo
 start H2O
 title "H2O"

 memory total 24 gb

 geometry units bohr
 symmetry c1
        O  0.00000000  0.00000000  0.00000000
        H  0.00000000  2.4149195  0.00000000
        H  1.72558000 -0.64860000  0.00000000
 end

 basis spherical
   * library 6-311++G**
 end

 mcscf
   active  8
   actelec 10
   multiplicity 1
   maxiter 40
   vectors input h2o.mos
   vectors output h2o.mos
 end

 task mcscf

 scf
   vectors input h2o.mos
   vectors output h2o-trash.mos
   noscf
 end

 tce
   2eorb
   2emet 13
   ccsd
   maxiter 300
 end

 set tce:print_integrals T
 set tce:qorb 8
 set tce:qela 5
 set tce:qelb 5

# set tce:qducc T
# set tce:nactv 3
# set tce:nonhf T
# set tce:ducc_model 6

 set tce:printtol 0.02

 task tce
================================================================================

 Output coordinates in a.u. (scale by  1.000000000 to convert to a.u.)

  No.       Tag          Charge          X              Y              Z
 ---- ---------------- ---------- -------------- -------------- --------------
    1 O                    8.0000    -0.17255800    -0.17663195     0.00000000
    2 H                    1.0000    -0.17255800     2.23828755     0.00000000
    3 H                    1.0000     1.55302200    -0.82523195     0.00000000

 Vector    1  Occ=1.999991D+00  E=-2.058162D+01  Symmetry=a

 Vector    2  Occ=1.998314D+00  E=-1.310071D+00  Symmetry=a

 Vector    3  Occ=1.978402D+00  E=-6.879733D-01  Symmetry=a

 Vector    4  Occ=1.974242D+00  E=-5.618721D-01  Symmetry=a

 Vector    5  Occ=1.945580D+00  E=-5.254491D-01  Symmetry=a

 Vector    6  Occ=5.597208D-02  E=-4.222784D-02  Symmetry=a

 Vector    7  Occ=2.649782D-02  E=-2.624086D-02  Symmetry=a

 Vector    8  Occ=2.100103D-02  E=-1.665242D-02  Symmetry=a

 Vector    9  Occ=0.000000D+00  E= 7.445928D-02  Symmetry=a

 Vector   10  Occ=0.000000D+00  E= 8.700999D-02  Symmetry=a

 Vector   11  Occ=0.000000D+00  E= 2.365961D-01  Symmetry=a

 Vector   12  Occ=0.000000D+00  E= 2.802572D-01  Symmetry=a

 Vector   13  Occ=0.000000D+00  E= 3.192014D-01  Symmetry=a

 Vector   14  Occ=0.000000D+00  E= 4.816208D-01  Symmetry=a

 Vector   15  Occ=0.000000D+00  E= 5.004690D-01  Symmetry=a

 Vector   16  Occ=0.000000D+00  E= 6.523312D-01  Symmetry=a

 Vector   17  Occ=0.000000D+00  E= 1.025918D+00  Symmetry=a

 Vector   18  Occ=0.000000D+00  E= 1.164257D+00  Symmetry=a

         Total SCF energy =    -75.982941331427

 Vector    2  Occ=2.000000D+00  E=-1.310071D+00

 Vector    3  Occ=2.000000D+00  E=-6.879733D-01

 Vector    4  Occ=2.000000D+00  E=-5.618721D-01

 Vector    5  Occ=2.000000D+00  E=-5.254491D-01

 Vector    6  Occ=0.000000D+00  E=-4.222784D-02

 Vector    7  Occ=0.000000D+00  E=-2.624086D-02

 Vector    8  Occ=0.000000D+00  E=-1.665242D-02

 Vector    9  Occ=0.000000D+00  E= 7.445928D-02

 Vector   10  Occ=0.000000D+00  E= 8.700999D-02

 Vector   11  Occ=0.000000D+00  E= 2.365961D-01

 Vector   12  Occ=0.000000D+00  E= 2.802572D-01

 Vector   13  Occ=0.000000D+00  E= 3.192014D-01

 Vector   14  Occ=0.000000D+00  E= 4.816208D-01

 Vector   15  Occ=0.000000D+00  E= 5.004690D-01

       Multipole analysis of the density wrt the origin
       ------------------------------------------------

     L   x y z        total         open         nuclear
     -   - - -        -----         ----         -------
     0   0 0 0     -0.000000      0.000000     10.000000

     1   1 0 0      0.641712      0.000000     -0.000000
     1   0 1 0      0.522826      0.000000      0.000000
     1   0 0 1     -0.000000      0.000000      0.000000

     2   2 0 0     -4.489752      0.000000      2.679864
     2   1 1 0     -0.919000      0.000000     -1.424004
     2   1 0 1      0.000000      0.000000      0.000000
     2   0 2 0     -3.134270      0.000000      5.940530
     2   0 1 1      0.000000      0.000000      0.000000

 CCSD total energy / hartree       =       -76.094420972848226
 Total times  cpu:       58.5s     wall:       81.9s
