============================== echo of input deck ==============================
 echo
 start H2O
 title "H2O"

 memory total 24 gb

 geometry units bohr
 symmetry c1
        O  0.00000000  0.00000000  0.00000000
        H  0.00000000  2.470223  0.00000000
        H  1.72558000 -0.64860000  0.00000000
 end

 basis spherical
   * library 6-311++G**
 end

 mcscf
   active  8
   actelec 10
   multiplicity 1
   maxiter 40
   vectors input h2o.mos
   vectors output h2o.mos
 end

 task mcscf

 scf
   vectors input h2o.mos
   vectors output h2o-trash.mos
   noscf
 end

 tce
   2eorb
   2emet 13
   ccsd
   maxiter 300
 end

 set tce:print_integrals T
 set tce:qorb 8
 set tce:qela 5
 set tce:qelb 5

# set tce:qducc T
# set tce:nactv 3
# set tce:nonhf T
# set tce:ducc_model 6

 set tce:printtol 0.02

 task tce
================================================================================

 Output coordinates in a.u. (scale by  1.000000000 to convert to a.u.)

  No.       Tag          Charge          X              Y              Z
 ---- ---------------- ---------- -------------- -------------- --------------
    1 O                    8.0000    -0.17255800    -0.18216230     0.00000000
    2 H                    1.0000    -0.17255800     2.28806070     0.00000000
    3 H                    1.0000     1.55302200    -0.83076230     0.00000000

 Vector    1  Occ=1.999991D+00  E=-2.058341D+01  Symmetry=a

 Vector    2  Occ=1.998257D+00  E=-1.308109D+00  Symmetry=a

 Vector    3  Occ=1.978307D+00  E=-6.842624D-01  Symmetry=a

 Vector    4  Occ=1.974085D+00  E=-5.581604D-01  Symmetry=a

 Vector    5  Occ=1.940578D+00  E=-5.255380D-01  Symmetry=a

 Vector    6  Occ=6.104735D-02  E=-4.432843D-02  Symmetry=a

 Vector    7  Occ=2.666109D-02  E=-2.627350D-02  Symmetry=a

 Vector    8  Occ=2.107450D-02  E=-1.656703D-02  Symmetry=a

 Vector    9  Occ=0.000000D+00  E= 7.476090D-02  Symmetry=a

 Vector   10  Occ=0.000000D+00  E= 8.697718D-02  Symmetry=a

 Vector   11  Occ=0.000000D+00  E= 2.366938D-01  Symmetry=a

 Vector   12  Occ=0.000000D+00  E= 2.805759D-01  Symmetry=a

 Vector   13  Occ=0.000000D+00  E= 3.194102D-01  Symmetry=a

 Vector   14  Occ=0.000000D+00  E= 4.821163D-01  Symmetry=a

 Vector   15  Occ=0.000000D+00  E= 5.003074D-01  Symmetry=a

 Vector   16  Occ=0.000000D+00  E= 6.546885D-01  Symmetry=a

 Vector   17  Occ=0.000000D+00  E= 1.028032D+00  Symmetry=a

 Vector   18  Occ=0.000000D+00  E= 1.176340D+00  Symmetry=a

         Total SCF energy =    -75.974694691883

 Vector    2  Occ=2.000000D+00  E=-1.308109D+00

 Vector    3  Occ=2.000000D+00  E=-6.842624D-01

 Vector    4  Occ=2.000000D+00  E=-5.581604D-01

 Vector    5  Occ=2.000000D+00  E=-5.255380D-01

 Vector    6  Occ=0.000000D+00  E=-4.432843D-02

 Vector    7  Occ=0.000000D+00  E=-2.627350D-02

 Vector    8  Occ=0.000000D+00  E=-1.656703D-02

 Vector    9  Occ=0.000000D+00  E= 7.476090D-02

 Vector   10  Occ=0.000000D+00  E= 8.697718D-02

 Vector   11  Occ=0.000000D+00  E= 2.366938D-01

 Vector   12  Occ=0.000000D+00  E= 2.805759D-01

 Vector   13  Occ=0.000000D+00  E= 3.194102D-01

 Vector   14  Occ=0.000000D+00  E= 4.821163D-01

 Vector   15  Occ=0.000000D+00  E= 5.003074D-01

       Multipole analysis of the density wrt the origin
       ------------------------------------------------

     L   x y z        total         open         nuclear
     -   - - -        -----         ----         -------
     0   0 0 0     -0.000000      0.000000     10.000000

     1   1 0 0      0.639812      0.000000     -0.000000
     1   0 1 0      0.521912      0.000000      0.000000
     1   0 0 1     -0.000000      0.000000      0.000000

     2   2 0 0     -4.506113      0.000000      2.679864
     2   1 1 0     -0.920588      0.000000     -1.433547
     2   1 0 1      0.000000      0.000000      0.000000
     2   0 2 0     -3.092338      0.000000      6.190853
     2   0 1 1      0.000000      0.000000      0.000000

 CCSD total energy / hartree       =       -76.087930983444394
 Total times  cpu:       59.1s     wall:       83.0s
