============================== echo of input deck ==============================
 echo
 start H2O
 title "H2O"

 memory total 24 gb

 geometry units bohr
 symmetry c1
        O  0.00000000  0.00000000  0.00000000
        H  0.00000000  2.5255265  0.00000000
        H  1.72558000 -0.64860000  0.00000000
 end

 basis spherical
   * library 6-311++G**
 end

 mcscf
   active  8
   actelec 10
   multiplicity 1
   maxiter 40
   vectors input h2o.mos
   vectors output h2o.mos
 end

 task mcscf

 scf
   vectors input h2o.mos
   vectors output h2o-trash.mos
   noscf
 end

 tce
   2eorb
   2emet 13
   ccsd
   maxiter 300
 end

 set tce:print_integrals T
 set tce:qorb 8
 set tce:qela 5
 set tce:qelb 5

# set tce:qducc T
# set tce:nactv 3
# set tce:nonhf T
# set tce:ducc_model 6

 set tce:printtol 0.02

 task tce
================================================================================

 Output coordinates in a.u. (scale by  1.000000000 to convert to a.u.)

  No.       Tag          Charge          X              Y              Z
 ---- ---------------- ---------- -------------- -------------- --------------
    1 O                    8.0000    -0.17255800    -0.18769265     0.00000000
    2 H                    1.0000    -0.17255800     2.33783385     0.00000000
    3 H                    1.0000     1.55302200    -0.83629265     0.00000000

 Vector    1  Occ=1.999991D+00  E=-2.058521D+01  Symmetry=a

 Vector    2  Occ=1.998204D+00  E=-1.306460D+00  Symmetry=a

 Vector    3  Occ=1.978242D+00  E=-6.809842D-01  Symmetry=a

 Vector    4  Occ=1.973940D+00  E=-5.542553D-01  Symmetry=a

 Vector    5  Occ=1.935028D+00  E=-5.257505D-01  Symmetry=a

 Vector    6  Occ=6.666475D-02  E=-4.656637D-02  Symmetry=a

 Vector    7  Occ=2.681197D-02  E=-2.630354D-02  Symmetry=a

 Vector    8  Occ=2.111986D-02  E=-1.647395D-02  Symmetry=a

 Vector    9  Occ=0.000000D+00  E= 7.505971D-02  Symmetry=a

 Vector   10  Occ=0.000000D+00  E= 8.695380D-02  Symmetry=a

 Vector   11  Occ=0.000000D+00  E= 2.368045D-01  Symmetry=a

 Vector   12  Occ=0.000000D+00  E= 2.808996D-01  Symmetry=a

 Vector   13  Occ=0.000000D+00  E= 3.196118D-01  Symmetry=a

 Vector   14  Occ=0.000000D+00  E= 4.828192D-01  Symmetry=a

 Vector   15  Occ=0.000000D+00  E= 5.000521D-01  Symmetry=a

 Vector   16  Occ=0.000000D+00  E= 6.567305D-01  Symmetry=a

 Vector   17  Occ=0.000000D+00  E= 1.030241D+00  Symmetry=a

 Vector   18  Occ=0.000000D+00  E= 1.188086D+00  Symmetry=a

         Total SCF energy =    -75.966417141886

 Vector    2  Occ=2.000000D+00  E=-1.306460D+00

 Vector    3  Occ=2.000000D+00  E=-6.809842D-01

 Vector    4  Occ=2.000000D+00  E=-5.542553D-01

 Vector    5  Occ=2.000000D+00  E=-5.257505D-01

 Vector    6  Occ=0.000000D+00  E=-4.656637D-02

 Vector    7  Occ=0.000000D+00  E=-2.630354D-02

 Vector    8  Occ=0.000000D+00  E=-1.647395D-02

 Vector    9  Occ=0.000000D+00  E= 7.505971D-02

 Vector   10  Occ=0.000000D+00  E= 8.695380D-02

 Vector   11  Occ=0.000000D+00  E= 2.368045D-01

 Vector   12  Occ=0.000000D+00  E= 2.808996D-01

 Vector   13  Occ=0.000000D+00  E= 3.196118D-01

 Vector   14  Occ=0.000000D+00  E= 4.828192D-01

 Vector   15  Occ=0.000000D+00  E= 5.000521D-01

       Multipole analysis of the density wrt the origin
       ------------------------------------------------

     L   x y z        total         open         nuclear
     -   - - -        -----         ----         -------
     0   0 0 0     -0.000000      0.000000     10.000000

     1   1 0 0      0.638004      0.000000     -0.000000
     1   0 1 0      0.519459      0.000000     -0.000000
     1   0 0 1     -0.000000      0.000000      0.000000

     2   2 0 0     -4.521542      0.000000      2.679864
     2   1 1 0     -0.921527      0.000000     -1.443090
     2   1 0 1      0.000000      0.000000      0.000000
     2   0 2 0     -3.052891      0.000000      6.446681
     2   0 1 1      0.000000      0.000000      0.000000

 CCSD total energy / hartree       =       -76.081468951901726
 Total times  cpu:       61.0s     wall:       85.0s
