============================== echo of input deck ==============================
 echo
 start H2O
 title "H2O"

 memory total 24 gb

 geometry units bohr
 symmetry c1
        O  0.00000000  0.00000000  0.00000000
        H  0.00000000  2.5992645  0.00000000
        H  1.72558000 -0.64860000  0.00000000
 end

 basis spherical
   * library 6-311++G**
 end

 mcscf
   active  8
   actelec 10
   multiplicity 1
   maxiter 40
   vectors input h2o.mos
   vectors output h2o.mos
 end

 task mcscf

 scf
   vectors input h2o.mos
   vectors output h2o-trash.mos
   noscf
 end

 tce
   2eorb
   2emet 13
   ccsd
   maxiter 300
 end

 set tce:print_integrals T
 set tce:qorb 8
 set tce:qela 5
 set tce:qelb 5

# set tce:qducc T
# set tce:nactv 3
# set tce:nonhf T
# set tce:ducc_model 6

 set tce:printtol 0.02

 task tce
================================================================================

 Output coordinates in a.u. (scale by  1.000000000 to convert to a.u.)

  No.       Tag          Charge          X              Y              Z
 ---- ---------------- ---------- -------------- -------------- --------------
    1 O                    8.0000    -0.17255800    -0.19506645     0.00000000
    2 H                    1.0000    -0.17255800     2.40419805     0.00000000
    3 H                    1.0000     1.55302200    -0.84366645     0.00000000

 Vector    1  Occ=1.999991D+00  E=-2.058762D+01  Symmetry=a

 Vector    2  Occ=1.998139D+00  E=-1.304716D+00  Symmetry=a

 Vector    3  Occ=1.978204D+00  E=-6.772735D-01  Symmetry=a

 Vector    4  Occ=1.973768D+00  E=-5.487458D-01  Symmetry=a

 Vector    5  Occ=1.926676D+00  E=-5.262262D-01  Symmetry=a

 Vector    6  Occ=7.509487D-02  E=-4.978451D-02  Symmetry=a

 Vector    7  Occ=2.699258D-02  E=-2.633964D-02  Symmetry=a

 Vector    8  Occ=2.113513D-02  E=-1.633904D-02  Symmetry=a

 Vector    9  Occ=0.000000D+00  E= 7.544939D-02  Symmetry=a

 Vector   10  Occ=0.000000D+00  E= 8.694111D-02  Symmetry=a

 Vector   11  Occ=0.000000D+00  E= 2.369649D-01  Symmetry=a

 Vector   12  Occ=0.000000D+00  E= 2.813303D-01  Symmetry=a

 Vector   13  Occ=0.000000D+00  E= 3.198692D-01  Symmetry=a

 Vector   14  Occ=0.000000D+00  E= 4.840397D-01  Symmetry=a

 Vector   15  Occ=0.000000D+00  E= 4.995809D-01  Symmetry=a

 Vector   16  Occ=0.000000D+00  E= 6.589152D-01  Symmetry=a

 Vector   17  Occ=0.000000D+00  E= 1.033327D+00  Symmetry=a

 Vector   18  Occ=0.000000D+00  E= 1.203008D+00  Symmetry=a

         Total SCF energy =    -75.955391349673

 Vector    2  Occ=2.000000D+00  E=-1.304716D+00

 Vector    3  Occ=2.000000D+00  E=-6.772735D-01

 Vector    4  Occ=2.000000D+00  E=-5.487458D-01

 Vector    5  Occ=2.000000D+00  E=-5.262262D-01

 Vector    6  Occ=0.000000D+00  E=-4.978451D-02

 Vector    7  Occ=0.000000D+00  E=-2.633964D-02

 Vector    8  Occ=0.000000D+00  E=-1.633904D-02

 Vector    9  Occ=0.000000D+00  E= 7.544939D-02

 Vector   10  Occ=0.000000D+00  E= 8.694111D-02

 Vector   11  Occ=0.000000D+00  E= 2.369649D-01

 Vector   12  Occ=0.000000D+00  E= 2.813303D-01

 Vector   13  Occ=0.000000D+00  E= 3.198692D-01

 Vector   14  Occ=0.000000D+00  E= 4.840397D-01

 Vector   15  Occ=0.000000D+00  E= 4.995809D-01

 Vector   16  Occ=0.000000D+00  E= 6.589152D-01

       Multipole analysis of the density wrt the origin
       ------------------------------------------------

     L   x y z        total         open         nuclear
     -   - - -        -----         ----         -------
     0   0 0 0     -0.000000      0.000000     10.000000

     1   1 0 0      0.635746      0.000000     -0.000000
     1   0 1 0      0.513708      0.000000      0.000000
     1   0 0 1     -0.000000      0.000000      0.000000

     2   2 0 0     -4.540645      0.000000      2.679864
     2   1 1 0     -0.921723      0.000000     -1.455814
     2   1 0 1      0.000000      0.000000      0.000000
     2   0 2 0     -3.004873      0.000000      6.796349
     2   0 1 1      0.000000      0.000000      0.000000

 CCSD total energy / hartree       =       -76.072967611958930
 Total times  cpu:       62.5s     wall:       86.9s
