============================== echo of input deck ==============================
 echo
 start H2O
 title "H2O"

 memory total 24 gb

 geometry units bohr
 symmetry c1
        O  0.00000000  0.00000000  0.00000000
        H  0.00000000  2.765175  0.00000000
        H  1.72558000 -0.64860000  0.00000000
 end

 basis spherical
   * library 6-311++G**
 end

 mcscf
   active  8
   actelec 10
   multiplicity 1
   maxiter 40
   vectors input h2o.mos
   vectors output h2o.mos
 end

 task mcscf

 scf
   vectors input h2o.mos
   vectors output h2o-trash.mos
   noscf
 end

 tce
   2eorb
   2emet 13
   ccsd
   maxiter 300
 end

 set tce:print_integrals T
 set tce:qorb 8
 set tce:qela 5
 set tce:qelb 5

# set tce:qducc T
# set tce:nactv 3
# set tce:nonhf T
# set tce:ducc_model 6

 set tce:printtol 0.02

 task tce
================================================================================

 Output coordinates in a.u. (scale by  1.000000000 to convert to a.u.)

  No.       Tag          Charge          X              Y              Z
 ---- ---------------- ---------- -------------- -------------- --------------
    1 O                    8.0000    -0.17255800    -0.21165750     0.00000000
    2 H                    1.0000    -0.17255800     2.55351750     0.00000000
    3 H                    1.0000     1.55302200    -0.86025750     0.00000000

 Vector    1  Occ=1.999991D+00  E=-2.059308D+01  Symmetry=a

 Vector    2  Occ=1.998034D+00  E=-1.302351D+00  Symmetry=a

 Vector    3  Occ=1.978330D+00  E=-6.714183D-01  Symmetry=a

 Vector    4  Occ=1.973476D+00  E=-5.354427D-01  Symmetry=a

 Vector    5  Occ=1.903242D+00  E=-5.278992D-01  Symmetry=a

 Vector    6  Occ=9.864035D-02  E=-5.777402D-02  Symmetry=a

 Vector    7  Occ=2.730753D-02  E=-2.639926D-02  Symmetry=a

 Vector    8  Occ=2.097768D-02  E=-1.604027D-02  Symmetry=a

 Vector    9  Occ=0.000000D+00  E= 7.614952D-02  Symmetry=a

 Vector   10  Occ=0.000000D+00  E= 8.698015D-02  Symmetry=a

 Vector   11  Occ=0.000000D+00  E= 2.373890D-01  Symmetry=a

 Vector   12  Occ=0.000000D+00  E= 2.821111D-01  Symmetry=a

 Vector   13  Occ=0.000000D+00  E= 3.202345D-01  Symmetry=a

 Vector   14  Occ=0.000000D+00  E= 4.873709D-01  Symmetry=a

 Vector   15  Occ=0.000000D+00  E= 4.986375D-01  Symmetry=a

 Vector   16  Occ=0.000000D+00  E= 6.623478D-01  Symmetry=a

 Vector   17  Occ=0.000000D+00  E= 1.039797D+00  Symmetry=a

 Vector   18  Occ=0.000000D+00  E= 1.229979D+00  Symmetry=a

         Total SCF energy =    -75.930914666992

 Vector    2  Occ=2.000000D+00  E=-1.302351D+00

 Vector    3  Occ=2.000000D+00  E=-6.714183D-01

 Vector    4  Occ=2.000000D+00  E=-5.354427D-01

 Vector    5  Occ=2.000000D+00  E=-5.278992D-01

 Vector    6  Occ=0.000000D+00  E=-5.777402D-02

 Vector    7  Occ=0.000000D+00  E=-2.639926D-02

 Vector    8  Occ=0.000000D+00  E=-1.604027D-02

 Vector    9  Occ=0.000000D+00  E= 7.614952D-02

 Vector   10  Occ=0.000000D+00  E= 8.698015D-02

 Vector   11  Occ=0.000000D+00  E= 2.373890D-01

 Vector   12  Occ=0.000000D+00  E= 2.821111D-01

 Vector   13  Occ=0.000000D+00  E= 3.202345D-01

 Vector   14  Occ=0.000000D+00  E= 4.873709D-01

 Vector   15  Occ=0.000000D+00  E= 4.986375D-01

 Vector   16  Occ=0.000000D+00  E= 6.623478D-01

       Multipole analysis of the density wrt the origin
       ------------------------------------------------

     L   x y z        total         open         nuclear
     -   - - -        -----         ----         -------
     0   0 0 0     -0.000000      0.000000     10.000000

     1   1 0 0      0.631367      0.000000     -0.000000
     1   0 1 0      0.490141      0.000000     -0.000000
     1   0 0 1     -0.000000      0.000000      0.000000

     2   2 0 0     -4.577471      0.000000      2.679864
     2   1 1 0     -0.917540      0.000000     -1.484443
     2   1 0 1      0.000000      0.000000      0.000000
     2   0 2 0     -2.920174      0.000000      7.618886
     2   0 1 1      0.000000      0.000000      0.000000

 CCSD total energy / hartree       =       -76.054686982769354
 Total times  cpu:       63.8s     wall:       90.2s
