============================== echo of input deck ==============================
 echo
 start H2O
 title "H2O"

 memory total 24 gb

 geometry units bohr
 symmetry c1
        O  0.00000000  0.00000000  0.00000000
        H  0.00000000  2.94952  0.00000000
        H  1.72558000 -0.64860000  0.00000000
 end

 basis spherical
   * library 6-311++G**
 end

 mcscf
   active  8
   actelec 10
   multiplicity 1
   maxiter 40
   vectors input h2o.mos
   vectors output h2o.mos
 end

 task mcscf

 scf
   vectors input h2o.mos
   vectors output h2o-trash.mos
   noscf
 end

 tce
   2eorb
   2emet 13
   ccsd
   maxiter 300
 end

 set tce:print_integrals T
 set tce:qorb 8
 set tce:qela 5
 set tce:qelb 5

# set tce:qducc T
# set tce:nactv 3
# set tce:nonhf T
# set tce:ducc_model 6

 set tce:printtol 0.02

 task tce
================================================================================

 Output coordinates in a.u. (scale by  1.000000000 to convert to a.u.)

  No.       Tag          Charge          X              Y              Z
 ---- ---------------- ---------- -------------- -------------- --------------
    1 O                    8.0000    -0.17255800    -0.23009200     0.00000000
    2 H                    1.0000    -0.17255800     2.71942800     0.00000000
    3 H                    1.0000     1.55302200    -0.87869200     0.00000000

 Vector    1  Occ=1.999991D+00  E=-2.059924D+01  Symmetry=a

 Vector    2  Occ=1.997996D+00  E=-1.302150D+00  Symmetry=a

 Vector    3  Occ=1.978792D+00  E=-6.686343D-01  Symmetry=a

 Vector    4  Occ=1.973310D+00  E=-5.310835D-01  Symmetry=a

 Vector    5  Occ=1.868389D+00  E=-5.186309D-01  Symmetry=a

 Vector    6  Occ=1.334945D-01  E=-6.903081D-02  Symmetry=a

 Vector    7  Occ=2.750658D-02  E=-2.645354D-02  Symmetry=a

 Vector    8  Occ=2.052050D-02  E=-1.563564D-02  Symmetry=a

 Vector    9  Occ=0.000000D+00  E= 7.681285D-02  Symmetry=a

 Vector   10  Occ=0.000000D+00  E= 8.734578D-02  Symmetry=a

 Vector   11  Occ=0.000000D+00  E= 2.377078D-01  Symmetry=a

 Vector   12  Occ=0.000000D+00  E= 2.828806D-01  Symmetry=a

 Vector   13  Occ=0.000000D+00  E= 3.206761D-01  Symmetry=a

 Vector   14  Occ=0.000000D+00  E= 4.897994D-01  Symmetry=a

 Vector   15  Occ=0.000000D+00  E= 4.993803D-01  Symmetry=a

 Vector   16  Occ=0.000000D+00  E= 6.614863D-01  Symmetry=a

 Vector   17  Occ=0.000000D+00  E= 1.048418D+00  Symmetry=a

 Vector   18  Occ=0.000000D+00  E= 1.249977D+00  Symmetry=a

         Total SCF energy =    -75.904675320625

 Vector    2  Occ=2.000000D+00  E=-1.302150D+00

 Vector    3  Occ=2.000000D+00  E=-6.686343D-01

 Vector    4  Occ=2.000000D+00  E=-5.310835D-01

 Vector    5  Occ=2.000000D+00  E=-5.186309D-01

 Vector    6  Occ=0.000000D+00  E=-6.903081D-02

 Vector    7  Occ=0.000000D+00  E=-2.645354D-02

 Vector    8  Occ=0.000000D+00  E=-1.563564D-02

 Vector    9  Occ=0.000000D+00  E= 7.681285D-02

 Vector   10  Occ=0.000000D+00  E= 8.734578D-02

 Vector   11  Occ=0.000000D+00  E= 2.377078D-01

 Vector   12  Occ=0.000000D+00  E= 2.828806D-01

 Vector   13  Occ=0.000000D+00  E= 3.206761D-01

 Vector   14  Occ=0.000000D+00  E= 4.897994D-01

 Vector   15  Occ=0.000000D+00  E= 4.993803D-01

 Vector   16  Occ=0.000000D+00  E= 6.614863D-01

       Multipole analysis of the density wrt the origin
       ------------------------------------------------

     L   x y z        total         open         nuclear
     -   - - -        -----         ----         -------
     0   0 0 0     -0.000000      0.000000     10.000000

     1   1 0 0      0.627835      0.000000     -0.000000
     1   0 1 0      0.447612      0.000000      0.000000
     1   0 0 1     -0.000000      0.000000      0.000000

     2   2 0 0     -4.608666      0.000000      2.679864
     2   1 1 0     -0.905353      0.000000     -1.516253
     2   1 0 1      0.000000      0.000000      0.000000
     2   0 2 0     -2.870057      0.000000      8.590927
     2   0 1 1      0.000000      0.000000      0.000000

 CCSD total energy / hartree       =       -76.036340758073067
 Total times  cpu:       76.2s     wall:      107.5s
