============================== echo of input deck ==============================
 echo
 start H2O
 title "H2O"

 memory total 24 gb

 geometry units bohr
 symmetry c1
        O  0.00000000  0.00000000  0.00000000
        H  0.00000000  3.9634175  0.00000000
        H  1.72558000 -0.64860000  0.00000000
 end

 basis spherical
   * library 6-311++G**
 end

 mcscf
   active  8
   actelec 10
   multiplicity 1
   maxiter 40
   vectors input h2o.mos
   vectors output h2o.mos
 end

 task mcscf

 scf
   vectors input h2o.mos
   vectors output h2o-trash.mos
   noscf
 end

 tce
   2eorb
   2emet 13
   ccsd
   maxiter 300
 end

 set tce:print_integrals T
 set tce:qorb 8
 set tce:qela 5
 set tce:qelb 5

# set tce:qducc T
# set tce:nactv 3
# set tce:nonhf T
# set tce:ducc_model 6

 set tce:printtol 0.02

 task tce
================================================================================

 Output coordinates in a.u. (scale by  1.000000000 to convert to a.u.)

  No.       Tag          Charge          X              Y              Z
 ---- ---------------- ---------- -------------- -------------- --------------
    1 O                    8.0000    -0.17255800    -0.33148175     0.00000000
    2 H                    1.0000    -0.17255800     3.63193575     0.00000000
    3 H                    1.0000     1.55302200    -0.98008175     0.00000000

 Vector    1  Occ=1.999992D+00  E=-2.062099D+01  Symmetry=a

 Vector    2  Occ=1.998556D+00  E=-1.313296D+00  Symmetry=a

 Vector    3  Occ=1.982868D+00  E=-6.771747D-01  Symmetry=a

 Vector    4  Occ=1.973909D+00  E=-5.502361D-01  Symmetry=a

 Vector    5  Occ=1.538690D+00  E=-4.181678D-01  Symmetry=a

 Vector    6  Occ=4.620573D-01  E=-1.561170D-01  Symmetry=a

 Vector    7  Occ=2.711533D-02  E=-2.645880D-02  Symmetry=a

 Vector    8  Occ=1.681211D-02  E=-1.391728D-02  Symmetry=a

 Vector    9  Occ=0.000000D+00  E= 7.423049D-02  Symmetry=a

 Vector   10  Occ=0.000000D+00  E= 9.344817D-02  Symmetry=a

 Vector   11  Occ=0.000000D+00  E= 2.373668D-01  Symmetry=a

 Vector   12  Occ=0.000000D+00  E= 2.812829D-01  Symmetry=a

 Vector   13  Occ=0.000000D+00  E= 3.178080D-01  Symmetry=a

 Vector   14  Occ=0.000000D+00  E= 4.669399D-01  Symmetry=a

 Vector   15  Occ=0.000000D+00  E= 5.440417D-01  Symmetry=a

 Vector   16  Occ=0.000000D+00  E= 6.125994D-01  Symmetry=a

 Vector   17  Occ=0.000000D+00  E= 1.079070D+00  Symmetry=a

 Vector   18  Occ=0.000000D+00  E= 1.197917D+00  Symmetry=a

         Total SCF energy =    -75.785243996482

 Vector    2  Occ=2.000000D+00  E=-1.313296D+00

 Vector    3  Occ=2.000000D+00  E=-6.771747D-01

 Vector    4  Occ=2.000000D+00  E=-5.502361D-01

 Vector    5  Occ=2.000000D+00  E=-4.181678D-01

 Vector    6  Occ=0.000000D+00  E=-1.561170D-01

 Vector    7  Occ=0.000000D+00  E=-2.645880D-02

 Vector    8  Occ=0.000000D+00  E=-1.391728D-02

 Vector    9  Occ=0.000000D+00  E= 7.423049D-02

 Vector   10  Occ=0.000000D+00  E= 9.344817D-02

 Vector   11  Occ=0.000000D+00  E= 2.373668D-01

 Vector   12  Occ=0.000000D+00  E= 2.812829D-01

 Vector   13  Occ=0.000000D+00  E= 3.178080D-01

 Vector   14  Occ=0.000000D+00  E= 4.669399D-01

 Vector   15  Occ=0.000000D+00  E= 5.440417D-01

       Multipole analysis of the density wrt the origin
       ------------------------------------------------

     L   x y z        total         open         nuclear
     -   - - -        -----         ----         -------
     0   0 0 0     -0.000000      0.000000     10.000000

     1   1 0 0      0.631813      0.000000     -0.000000
     1   0 1 0      0.107489      0.000000      0.000000
     1   0 0 1     -0.000000      0.000000      0.000000

     2   2 0 0     -4.650820      0.000000      2.679864
     2   1 1 0     -0.760503      0.000000     -1.691209
     2   1 0 1      0.000000      0.000000      0.000000
     2   0 2 0     -3.193777      0.000000     15.030559
     2   0 1 1      0.000000      0.000000      0.000000

 CCSD total energy / hartree       =       -75.978650217608561
 Total times  cpu:       95.2s     wall:      135.3s
