============================== echo of input deck ==============================
 echo
 start H2O
 title "H2O"

 memory total 24 gb

 geometry units bohr
 symmetry c1
        O  0.00000000  0.00000000  0.00000000
        H  0.00000000  4.5164525  0.00000000
        H  1.72558000 -0.64860000  0.00000000
 end

 basis spherical
   * library 6-311++G**
 end

 mcscf
   active  8
   actelec 10
   multiplicity 1
   maxiter 40
   vectors input h2o.mos
   vectors output h2o.mos
 end

 task mcscf

 scf
   vectors input h2o.mos
   vectors output h2o-trash.mos
   noscf
 end

 tce
   2eorb
   2emet 13
   ccsd
   maxiter 300
 end

 set tce:print_integrals T
 set tce:qorb 8
 set tce:qela 5
 set tce:qelb 5

# set tce:qducc T
# set tce:nactv 3
# set tce:nonhf T
# set tce:ducc_model 6

 set tce:printtol 0.02

 task tce
================================================================================

 Output coordinates in a.u. (scale by  1.000000000 to convert to a.u.)

  No.       Tag          Charge          X              Y              Z
 ---- ---------------- ---------- -------------- -------------- --------------
    1 O                    8.0000    -0.17255800    -0.38678525     0.00000000
    2 H                    1.0000    -0.17255800     4.12966725     0.00000000
    3 H                    1.0000     1.55302200    -1.03538525     0.00000000

 Vector    1  Occ=1.999993D+00  E=-2.062312D+01  Symmetry=a

 Vector    2  Occ=1.998788D+00  E=-1.315908D+00  Symmetry=a

 Vector    3  Occ=1.983947D+00  E=-6.797795D-01  Symmetry=a

 Vector    4  Occ=1.974224D+00  E=-5.538842D-01  Symmetry=a

 Vector    5  Occ=1.358280D+00  E=-3.783075D-01  Symmetry=a

 Vector    6  Occ=6.420564D-01  E=-1.965751D-01  Symmetry=a

 Vector    7  Occ=2.685582D-02  E=-2.638450D-02  Symmetry=a

 Vector    8  Occ=1.585616D-02  E=-1.353785D-02  Symmetry=a

 Vector    9  Occ=0.000000D+00  E= 7.239316D-02  Symmetry=a

 Vector   10  Occ=0.000000D+00  E= 9.571323D-02  Symmetry=a

 Vector   11  Occ=0.000000D+00  E= 2.375473D-01  Symmetry=a

 Vector   12  Occ=0.000000D+00  E= 2.791020D-01  Symmetry=a

 Vector   13  Occ=0.000000D+00  E= 3.124161D-01  Symmetry=a

 Vector   14  Occ=0.000000D+00  E= 4.589286D-01  Symmetry=a

 Vector   15  Occ=0.000000D+00  E= 5.586267D-01  Symmetry=a

 Vector   16  Occ=0.000000D+00  E= 5.948483D-01  Symmetry=a

 Vector   17  Occ=0.000000D+00  E= 1.080841D+00  Symmetry=a

 Vector   18  Occ=0.000000D+00  E= 1.221582D+00  Symmetry=a

         Total SCF energy =    -75.737902095550

 Vector    2  Occ=2.000000D+00  E=-1.315908D+00

 Vector    3  Occ=2.000000D+00  E=-6.797795D-01

 Vector    4  Occ=2.000000D+00  E=-5.538842D-01

 Vector    5  Occ=2.000000D+00  E=-3.783075D-01

 Vector    6  Occ=0.000000D+00  E=-1.965751D-01

 Vector    7  Occ=0.000000D+00  E=-2.638450D-02

 Vector    8  Occ=0.000000D+00  E=-1.353785D-02

 Vector    9  Occ=0.000000D+00  E= 7.239316D-02

 Vector   10  Occ=0.000000D+00  E= 9.571323D-02

 Vector   11  Occ=0.000000D+00  E= 2.375473D-01

 Vector   12  Occ=0.000000D+00  E= 2.791020D-01

 Vector   13  Occ=0.000000D+00  E= 3.124161D-01

 Vector   14  Occ=0.000000D+00  E= 4.589286D-01

 Vector   15  Occ=0.000000D+00  E= 5.586267D-01

       Multipole analysis of the density wrt the origin
       ------------------------------------------------

     L   x y z        total         open         nuclear
     -   - - -        -----         ----         -------
     0   0 0 0     -0.000000      0.000000     10.000000

     1   1 0 0      0.641875      0.000000     -0.000000
     1   0 1 0     -0.024850      0.000000      0.000000
     1   0 0 1     -0.000000      0.000000      0.000000

     2   2 0 0     -4.626420      0.000000      2.679864
     2   1 1 0     -0.694495      0.000000     -1.786640
     2   1 0 1      0.000000      0.000000      0.000000
     2   0 2 0     -3.465623      0.000000     19.322997
     2   0 1 1      0.000000      0.000000      0.000000

 CCSD total energy / hartree       =       -75.968572159950725
 Total times  cpu:       95.0s     wall:      133.9s
