============================== echo of input deck ==============================
 echo
 start H2O
 title "H2O"

 memory total 24 gb

 geometry units bohr
 symmetry c1
        O  0.00000000  0.00000000  0.00000000
        H  0.00000000  4.79297  0.00000000
        H  1.72558000 -0.64860000  0.00000000
 end

 basis spherical
   * library 6-311++G**
 end

 mcscf
   active  8
   actelec 10
   multiplicity 1
   maxiter 40
   vectors input h2o.mos
   vectors output h2o.mos
 end

 task mcscf

 scf
   vectors input h2o.mos
   vectors output h2o-trash.mos
   noscf
 end

 tce
   2eorb
   2emet 13
   ccsd
   maxiter 300
 end

 set tce:print_integrals T
 set tce:qorb 8
 set tce:qela 5
 set tce:qelb 5

# set tce:qducc T
# set tce:nactv 3
# set tce:nonhf T
# set tce:ducc_model 6

 set tce:printtol 0.02

 task tce
================================================================================

 Output coordinates in a.u. (scale by  1.000000000 to convert to a.u.)

  No.       Tag          Charge          X              Y              Z
 ---- ---------------- ---------- -------------- -------------- --------------
    1 O                    8.0000    -0.17255800    -0.41443700     0.00000000
    2 H                    1.0000    -0.17255800     4.37853300     0.00000000
    3 H                    1.0000     1.55302200    -1.06303700     0.00000000

 Vector    1  Occ=1.999993D+00  E=-2.062322D+01  Symmetry=a

 Vector    2  Occ=1.998855D+00  E=-1.316391D+00  Symmetry=a

 Vector    3  Occ=1.984226D+00  E=-6.802459D-01  Symmetry=a

 Vector    4  Occ=1.974313D+00  E=-5.545826D-01  Symmetry=a

 Vector    5  Occ=1.286476D+00  E=-3.642226D-01  Symmetry=a

 Vector    6  Occ=7.137442D-01  E=-2.112638D-01  Symmetry=a

 Vector    7  Occ=2.678144D-02  E=-2.635479D-02  Symmetry=a

 Vector    8  Occ=1.561129D-02  E=-1.343695D-02  Symmetry=a

 Vector    9  Occ=0.000000D+00  E= 7.167224D-02  Symmetry=a

 Vector   10  Occ=0.000000D+00  E= 9.639678D-02  Symmetry=a

 Vector   11  Occ=0.000000D+00  E= 2.378548D-01  Symmetry=a

 Vector   12  Occ=0.000000D+00  E= 2.776992D-01  Symmetry=a

 Vector   13  Occ=0.000000D+00  E= 3.092176D-01  Symmetry=a

 Vector   14  Occ=0.000000D+00  E= 4.565582D-01  Symmetry=a

 Vector   15  Occ=0.000000D+00  E= 5.602403D-01  Symmetry=a

 Vector   16  Occ=0.000000D+00  E= 5.903250D-01  Symmetry=a

 Vector   17  Occ=0.000000D+00  E= 1.080727D+00  Symmetry=a

 Vector   18  Occ=0.000000D+00  E= 1.236666D+00  Symmetry=a

         Total SCF energy =    -75.718485182383

 Vector    2  Occ=2.000000D+00  E=-1.316391D+00

 Vector    3  Occ=2.000000D+00  E=-6.802459D-01

 Vector    4  Occ=2.000000D+00  E=-5.545826D-01

 Vector    5  Occ=2.000000D+00  E=-3.642226D-01

 Vector    6  Occ=0.000000D+00  E=-2.112638D-01

 Vector    7  Occ=0.000000D+00  E=-2.635479D-02

 Vector    8  Occ=0.000000D+00  E=-1.343695D-02

 Vector    9  Occ=0.000000D+00  E= 7.167224D-02

 Vector   10  Occ=0.000000D+00  E= 9.639678D-02

 Vector   11  Occ=0.000000D+00  E= 2.378548D-01

 Vector   12  Occ=0.000000D+00  E= 2.776992D-01

 Vector   13  Occ=0.000000D+00  E= 3.092176D-01

 Vector   14  Occ=0.000000D+00  E= 4.565582D-01

 Vector   15  Occ=0.000000D+00  E= 5.602403D-01

       Multipole analysis of the density wrt the origin
       ------------------------------------------------

     L   x y z        total         open         nuclear
     -   - - -        -----         ----         -------
     0   0 0 0     -0.000000      0.000000     10.000000

     1   1 0 0      0.646596      0.000000     -0.000000
     1   0 1 0     -0.072043      0.000000      0.000000
     1   0 0 1     -0.000000      0.000000      0.000000

     2   2 0 0     -4.611733      0.000000      2.679864
     2   1 1 0     -0.673580      0.000000     -1.834355
     2   1 0 1      0.000000      0.000000      0.000000
     2   0 2 0     -3.590861      0.000000     21.675663
     2   0 1 1      0.000000      0.000000      0.000000

 CCSD total energy / hartree       =       -75.966140795691103
 Total times  cpu:      474.2s     wall:      654.5s
