============================== echo of input deck ==============================
 echo
 start H2O
 title "H2O"

 memory total 24 gb

 geometry units bohr
 symmetry c1
        O  0.00000000  0.00000000  0.00000000
        H  0.00000000  4.977315  0.00000000
        H  1.72558000 -0.64860000  0.00000000
 end

 basis spherical
   * library 6-311++G**
 end

 mcscf
   active  8
   actelec 10
   multiplicity 1
   maxiter 40
   vectors input h2o.mos
   vectors output h2o.mos
 end

 task mcscf

 scf
   vectors input h2o.mos
   vectors output h2o-trash.mos
   noscf
 end

 tce
   2eorb
   2emet 13
   ccsd
   maxiter 300
 end

 set tce:print_integrals T
 set tce:qorb 8
 set tce:qela 5
 set tce:qelb 5

# set tce:qducc T
# set tce:nactv 3
# set tce:nonhf T
# set tce:ducc_model 6

 set tce:printtol 0.02

 task tce
================================================================================

 Output coordinates in a.u. (scale by  1.000000000 to convert to a.u.)

  No.       Tag          Charge          X              Y              Z
 ---- ---------------- ---------- -------------- -------------- --------------
    1 O                    8.0000    -0.17255800    -0.43287150     0.00000000
    2 H                    1.0000    -0.17255800     4.54444350     0.00000000
    3 H                    1.0000     1.55302200    -1.08147150     0.00000000

 Vector    1  Occ=1.999993D+00  E=-2.062317D+01  Symmetry=a

 Vector    2  Occ=1.998888D+00  E=-1.316556D+00  Symmetry=a

 Vector    3  Occ=1.984352D+00  E=-6.803984D-01  Symmetry=a

 Vector    4  Occ=1.974354D+00  E=-5.548343D-01  Symmetry=a

 Vector    5  Occ=1.245713D+00  E=-3.567800D-01  Symmetry=a

 Vector    6  Occ=7.544525D-01  E=-2.190918D-01  Symmetry=a

 Vector    7  Occ=2.674708D-02  E=-2.633911D-02  Symmetry=a

 Vector    8  Occ=1.550128D-02  E=-1.338992D-02  Symmetry=a

 Vector    9  Occ=0.000000D+00  E= 7.123727D-02  Symmetry=a

 Vector   10  Occ=0.000000D+00  E= 9.672939D-02  Symmetry=a

 Vector   11  Occ=0.000000D+00  E= 2.380994D-01  Symmetry=a

 Vector   12  Occ=0.000000D+00  E= 2.765302D-01  Symmetry=a

 Vector   13  Occ=0.000000D+00  E= 3.071033D-01  Symmetry=a

 Vector   14  Occ=0.000000D+00  E= 4.554194D-01  Symmetry=a

 Vector   15  Occ=0.000000D+00  E= 5.597786D-01  Symmetry=a

 Vector   16  Occ=0.000000D+00  E= 5.883185D-01  Symmetry=a

 Vector   17  Occ=0.000000D+00  E= 1.080620D+00  Symmetry=a

 Vector   18  Occ=0.000000D+00  E= 1.242720D+00  Symmetry=a

         Total SCF energy =    -75.706975969481

 Vector    2  Occ=2.000000D+00  E=-1.316556D+00

 Vector    3  Occ=2.000000D+00  E=-6.803984D-01

 Vector    4  Occ=2.000000D+00  E=-5.548343D-01

 Vector    5  Occ=2.000000D+00  E=-3.567800D-01

 Vector    6  Occ=0.000000D+00  E=-2.190918D-01

 Vector    7  Occ=0.000000D+00  E=-2.633911D-02

 Vector    8  Occ=0.000000D+00  E=-1.338992D-02

 Vector    9  Occ=0.000000D+00  E= 7.123727D-02

 Vector   10  Occ=0.000000D+00  E= 9.672939D-02

 Vector   11  Occ=0.000000D+00  E= 2.380994D-01

 Vector   12  Occ=0.000000D+00  E= 2.765302D-01

 Vector   13  Occ=0.000000D+00  E= 3.071033D-01

 Vector   14  Occ=0.000000D+00  E= 4.554194D-01

 Vector   15  Occ=0.000000D+00  E= 5.597786D-01

       Multipole analysis of the density wrt the origin
       ------------------------------------------------

     L   x y z        total         open         nuclear
     -   - - -        -----         ----         -------
     0   0 0 0     -0.000000      0.000000     10.000000

     1   1 0 0      0.649415      0.000000     -0.000000
     1   0 1 0     -0.098008      0.000000     -0.000000
     1   0 0 1     -0.000000      0.000000      0.000000

     2   2 0 0     -4.602241      0.000000      2.679864
     2   1 1 0     -0.663864      0.000000     -1.866166
     2   1 0 1      0.000000      0.000000      0.000000
     2   0 2 0     -3.669997      0.000000     23.320569
     2   0 1 1      0.000000      0.000000      0.000000

 CCSD total energy / hartree       =       -75.965078786618449
 Total times  cpu:      360.9s     wall:      500.5s
