============================== echo of input deck ==============================
 echo
 start H2O
 title "H2O"

 memory total 24 gb

 geometry units bohr
 symmetry c1
        O  0.00000000  0.00000000  0.00000000
        H  0.00000000  5.346005  0.00000000
        H  1.72558000 -0.64860000  0.00000000
 end

 basis spherical
   * library 6-311++G**
 end

 mcscf
   active  8
   actelec 10
   multiplicity 1
   maxiter 40
   vectors input h2o.mos
   vectors output h2o.mos
 end

 task mcscf

 scf
   vectors input h2o.mos
   vectors output h2o-trash.mos
   noscf
 end

 tce
   2eorb
   2emet 13
   ccsd
   maxiter 300
 end

 set tce:print_integrals T
 set tce:qorb 8
 set tce:qela 5
 set tce:qelb 5

# set tce:qducc T
# set tce:nactv 3
# set tce:nonhf T
# set tce:ducc_model 6

 set tce:printtol 0.02

 task tce
================================================================================

 Output coordinates in a.u. (scale by  1.000000000 to convert to a.u.)

  No.       Tag          Charge          X              Y              Z
 ---- ---------------- ---------- -------------- -------------- --------------
    1 O                    8.0000    -0.17255800    -0.46974050     0.00000000
    2 H                    1.0000    -0.17255800     4.87626450     0.00000000
    3 H                    1.0000     1.55302200    -1.11834050     0.00000000

 Vector    1  Occ=1.999993D+00  E=-2.062294D+01  Symmetry=a

 Vector    2  Occ=1.998932D+00  E=-1.316682D+00  Symmetry=a

 Vector    3  Occ=1.984509D+00  E=-6.805040D-01  Symmetry=a

 Vector    4  Occ=1.974406D+00  E=-5.550590D-01  Symmetry=a

 Vector    5  Occ=1.179534D+00  E=-3.458486D-01  Symmetry=a

 Vector    6  Occ=8.205577D-01  E=-2.306806D-01  Symmetry=a

 Vector    7  Occ=2.670396D-02  E=-2.631657D-02  Symmetry=a

 Vector    8  Occ=1.536444D-02  E=-1.332880D-02  Symmetry=a

 Vector    9  Occ=0.000000D+00  E= 7.043975D-02  Symmetry=a

 Vector   10  Occ=0.000000D+00  E= 9.718415D-02  Symmetry=a

 Vector   11  Occ=0.000000D+00  E= 2.386139D-01  Symmetry=a

 Vector   12  Occ=0.000000D+00  E= 2.734666D-01  Symmetry=a

 Vector   13  Occ=0.000000D+00  E= 3.033401D-01  Symmetry=a

 Vector   14  Occ=0.000000D+00  E= 4.540273D-01  Symmetry=a

 Vector   15  Occ=0.000000D+00  E= 5.569669D-01  Symmetry=a

 Vector   16  Occ=0.000000D+00  E= 5.859397D-01  Symmetry=a

 Vector   17  Occ=0.000000D+00  E= 1.080452D+00  Symmetry=a

 Vector   18  Occ=0.000000D+00  E= 1.244364D+00  Symmetry=a

         Total SCF energy =    -75.687081844659

 Vector    2  Occ=2.000000D+00  E=-1.316682D+00

 Vector    3  Occ=2.000000D+00  E=-6.805040D-01

 Vector    4  Occ=2.000000D+00  E=-5.550590D-01

 Vector    5  Occ=2.000000D+00  E=-3.458486D-01

 Vector    6  Occ=0.000000D+00  E=-2.306806D-01

 Vector    7  Occ=0.000000D+00  E=-2.631657D-02

 Vector    8  Occ=0.000000D+00  E=-1.332880D-02

 Vector    9  Occ=0.000000D+00  E= 7.043975D-02

 Vector   10  Occ=0.000000D+00  E= 9.718415D-02

 Vector   11  Occ=0.000000D+00  E= 2.386139D-01

 Vector   12  Occ=0.000000D+00  E= 2.734666D-01

 Vector   13  Occ=0.000000D+00  E= 3.033401D-01

 Vector   14  Occ=0.000000D+00  E= 4.540273D-01

 Vector   15  Occ=0.000000D+00  E= 5.569669D-01

       Multipole analysis of the density wrt the origin
       ------------------------------------------------

     L   x y z        total         open         nuclear
     -   - - -        -----         ----         -------
     0   0 0 0     -0.000000      0.000000     10.000000

     1   1 0 0      0.654177      0.000000     -0.000000
     1   0 1 0     -0.139499      0.000000     -0.000000
     1   0 0 1     -0.000000      0.000000      0.000000

     2   2 0 0     -4.584941      0.000000      2.679864
     2   1 1 0     -0.653199      0.000000     -1.929786
     2   1 0 1      0.000000      0.000000      0.000000
     2   0 2 0     -3.817553      0.000000     26.793890
     2   0 1 1      0.000000      0.000000      0.000000

 CCSD total energy / hartree       =       -75.963798390860319
 Total times  cpu:      556.7s     wall:      768.5s
