============================== echo of input deck ==============================
 echo
 start HChain
 title "HChain"

 memory total 24 gb

 geometry units bohr
 symmetry c1
   H 0.0  0.0  0.0
   H 2.0  0.0  0.0
   H 4.0  0.0  0.0
   H 6.0  0.0  0.0
   H 8.0  0.0  0.0
   H 10.0  0.0  0.0
 end

 basis
   * library cc-pVTZ
 end

 tce
   2eorb
   2emet 13
   ccsd
 end

 set tce:print_integrals T
 set tce:qorb 6
 set tce:qela 3
 set tce:qelb 3

# set tce:qducc T
# set tce:nactv 2
# set tce:nonhf F
# set tce:ducc_model 6

 set tce:printtol 0.02

 task tce
================================================================================

 Output coordinates in a.u. (scale by  1.000000000 to convert to a.u.)

  No.       Tag          Charge          X              Y              Z
 ---- ---------------- ---------- -------------- -------------- --------------
    1 H                    1.0000    -5.00000000     0.00000000     0.00000000
    2 H                    1.0000    -3.00000000     0.00000000     0.00000000
    3 H                    1.0000    -1.00000000     0.00000000     0.00000000
    4 H                    1.0000     1.00000000     0.00000000     0.00000000
    5 H                    1.0000     3.00000000     0.00000000     0.00000000
    6 H                    1.0000     5.00000000     0.00000000     0.00000000

         Total SCF energy =     -3.224946698482

 Vector    1  Occ=2.000000D+00  E=-6.727942D-01

 Vector    2  Occ=2.000000D+00  E=-5.600050D-01

 Vector    3  Occ=2.000000D+00  E=-3.897240D-01

 Vector    4  Occ=0.000000D+00  E= 3.554988D-02

 Vector    5  Occ=0.000000D+00  E= 1.957669D-01

 Vector    6  Occ=0.000000D+00  E= 2.934308D-01

 Vector    7  Occ=0.000000D+00  E= 3.040643D-01

 Vector    8  Occ=0.000000D+00  E= 3.951853D-01

 Vector    9  Occ=0.000000D+00  E= 4.548368D-01

 Vector   10  Occ=0.000000D+00  E= 5.611252D-01

 Vector   11  Occ=0.000000D+00  E= 5.611252D-01

 Vector   12  Occ=0.000000D+00  E= 5.862704D-01

 Vector   13  Occ=0.000000D+00  E= 6.378749D-01

       Multipole analysis of the density wrt the origin
       ------------------------------------------------

     L   x y z        total         open         nuclear
     -   - - -        -----         ----         -------
     0   0 0 0      0.000000      0.000000      6.000000

     1   1 0 0      0.000000      0.000000      0.000000
     1   0 1 0     -0.000000      0.000000      0.000000
     1   0 0 1     -0.000000      0.000000      0.000000

     2   2 0 0     -4.372264      0.000000     70.000000
     2   1 1 0      0.000000      0.000000      0.000000
     2   1 0 1      0.000000      0.000000      0.000000
     2   0 2 0     -5.306934      0.000000      0.000000
     2   0 1 1     -0.000000      0.000000      0.000000

 CCSD total energy / hartree       =        -3.255214671448959
 Total times  cpu:       10.7s     wall:       13.7s
