============================== echo of input deck ==============================
 echo
 start HChain
 title "HChain"

 memory total 24 gb

 geometry units bohr
 symmetry c1
   H 0.0  0.0  0.0
   H 3.0  0.0  0.0
   H 6.0  0.0  0.0
   H 9.0  0.0  0.0
   H 12.0  0.0  0.0
   H 15.0  0.0  0.0
 end

 basis
   * library cc-pVTZ
 end

 tce
   2eorb
   2emet 13
   ccsd
 end

 set tce:print_integrals T
 set tce:qorb 6
 set tce:qela 3
 set tce:qelb 3

# set tce:qducc T
# set tce:nactv 2
# set tce:nonhf F
# set tce:ducc_model 6

 set tce:printtol 0.02

 task tce
================================================================================

 Output coordinates in a.u. (scale by  1.000000000 to convert to a.u.)

  No.       Tag          Charge          X              Y              Z
 ---- ---------------- ---------- -------------- -------------- --------------
    1 H                    1.0000    -7.50000000     0.00000000     0.00000000
    2 H                    1.0000    -4.50000000     0.00000000     0.00000000
    3 H                    1.0000    -1.50000000     0.00000000     0.00000000
    4 H                    1.0000     1.50000000     0.00000000     0.00000000
    5 H                    1.0000     4.50000000     0.00000000     0.00000000
    6 H                    1.0000     7.50000000     0.00000000     0.00000000

         Total SCF energy =     -2.969463804579

 Vector    1  Occ=2.000000D+00  E=-5.088532D-01

 Vector    2  Occ=2.000000D+00  E=-4.528521D-01

 Vector    3  Occ=2.000000D+00  E=-3.687427D-01

 Vector    4  Occ=0.000000D+00  E=-7.346013D-02

 Vector    5  Occ=0.000000D+00  E= 4.549116D-02

 Vector    6  Occ=0.000000D+00  E= 1.696888D-01

 Vector    7  Occ=0.000000D+00  E= 3.283633D-01

 Vector    8  Occ=0.000000D+00  E= 3.501063D-01

 Vector    9  Occ=0.000000D+00  E= 3.801345D-01

 Vector   10  Occ=0.000000D+00  E= 4.270790D-01

 Vector   11  Occ=0.000000D+00  E= 5.063136D-01

 Vector   12  Occ=0.000000D+00  E= 5.916514D-01

 Vector   13  Occ=0.000000D+00  E= 5.954653D-01

       Multipole analysis of the density wrt the origin
       ------------------------------------------------

     L   x y z        total         open         nuclear
     -   - - -        -----         ----         -------
     0   0 0 0     -0.000000      0.000000      6.000000

     1   1 0 0     -0.000000      0.000000      0.000000
     1   0 1 0     -0.000000      0.000000      0.000000
     1   0 0 1      0.000000      0.000000      0.000000

     2   2 0 0     -1.359047      0.000000    157.500000
     2   1 1 0      0.000000      0.000000      0.000000
     2   1 0 1      0.000000      0.000000      0.000000
     2   0 2 0     -6.922555      0.000000      0.000000
     2   0 1 1      0.000000      0.000000      0.000000

 CCSD total energy / hartree       =        -3.080476985520841
 Total times  cpu:       14.8s     wall:       19.4s
