============================== echo of input deck ==============================
 echo
 start H2O
 title "H2O"

 memory total 24 gb

 geometry units bohr
 symmetry c1
        O  0.00000000  0.00000000  0.00000000
        H  0.00000000  1.659105  0.00000000
        H  1.72558000 -0.64860000  0.00000000
 end

 basis spherical
   * library cc-pVTZ
 end

 scf
   vectors input h2o.mos
   vectors output h2o.mos
 end

 tce
   2eorb
   2emet 13
   ccsd
 end

# set tce:print_integrals T
# set tce:qorb
# set tce:qela
# set tce:qelb

# set tce:qducc T
# set tce:nactv
# set tce:nonhf F
# set tce:ducc_model 3

 set tce:printtol 0.02

 task tce

 tce
   2eorb
   2emet 13
   ccsd
   freeze virtual 50
 end

 set tce:printtol 0.02

 task tce

================================================================================

 Output coordinates in a.u. (scale by  1.000000000 to convert to a.u.)

  No.       Tag          Charge          X              Y              Z
 ---- ---------------- ---------- -------------- -------------- --------------
    1 O                    8.0000    -0.17255800    -0.10105050     0.00000000
    2 H                    1.0000    -0.17255800     1.55805450     0.00000000
    3 H                    1.0000     1.55302200    -0.74965050     0.00000000

         Total SCF energy =    -76.050950844115

 Vector    2  Occ=2.000000D+00  E=-1.359838D+00

 Vector    3  Occ=2.000000D+00  E=-7.391814D-01

 Vector    4  Occ=2.000000D+00  E=-5.707786D-01

 Vector    5  Occ=2.000000D+00  E=-5.053570D-01

 Vector    6  Occ=0.000000D+00  E= 1.453994D-01

 Vector    7  Occ=0.000000D+00  E= 2.051227D-01

 Vector    8  Occ=0.000000D+00  E= 5.538536D-01

 Vector    9  Occ=0.000000D+00  E= 6.069021D-01

 Vector   10  Occ=0.000000D+00  E= 6.717082D-01

 Vector   11  Occ=0.000000D+00  E= 7.837282D-01

 Vector   12  Occ=0.000000D+00  E= 8.062401D-01

 Vector   13  Occ=0.000000D+00  E= 8.399023D-01

 Vector   14  Occ=0.000000D+00  E= 8.575938D-01

 Vector   15  Occ=0.000000D+00  E= 9.872284D-01

       Multipole analysis of the density wrt the origin
       ------------------------------------------------

     L   x y z        total         open         nuclear
     -   - - -        -----         ----         -------
     0   0 0 0     -0.000000      0.000000     10.000000

     1   1 0 0      0.637050      0.000000     -0.000000
     1   0 1 0      0.395036      0.000000     -0.000000
     1   0 0 1     -0.000000      0.000000      0.000000

     2   2 0 0     -3.981106      0.000000      2.679864
     2   1 1 0     -0.812665      0.000000     -1.293582
     2   1 0 1      0.000000      0.000000      0.000000
     2   0 2 0     -3.577934      0.000000      3.071199
     2   0 1 1      0.000000      0.000000      0.000000

 CCSD total energy / hartree       =       -76.329700469274314
         Total SCF energy =    -76.050950844115
 CCSD total energy / hartree       =       -76.059232002343251
 Total times  cpu:        5.7s     wall:        5.8s
