============================== echo of input deck ==============================
 echo
 start H2O
 title "H2O"

 memory total 24 gb

 geometry units bohr
 symmetry c1
        O  0.00000000  0.00000000  0.00000000
        H  0.00000000  5.53035  0.00000000
        H  1.72558000 -0.64860000  0.00000000
 end

 basis spherical
   * library cc-pVTZ
 end

 scf
   vectors input h2o.mos
   vectors output h2o.mos
 end

 tce
   2eorb
   2emet 13
   ccsd
 end

# set tce:print_integrals T
# set tce:qorb
# set tce:qela
# set tce:qelb

# set tce:qducc T
# set tce:nactv
# set tce:nonhf F
# set tce:ducc_model 3

 set tce:printtol 0.02

 task tce

 tce
   2eorb
   2emet 13
   ccsd
   freeze virtual 50
 end

 set tce:printtol 0.02

 task tce

================================================================================

 Output coordinates in a.u. (scale by  1.000000000 to convert to a.u.)

  No.       Tag          Charge          X              Y              Z
 ---- ---------------- ---------- -------------- -------------- --------------
    1 O                    8.0000    -0.17255800    -0.48817500     0.00000000
    2 H                    1.0000    -0.17255800     5.04217500     0.00000000
    3 H                    1.0000     1.55302200    -1.13677500     0.00000000

         Total SCF energy =    -75.711577440386

 Vector    2  Occ=2.000000D+00  E=-1.288350D+00

 Vector    3  Occ=2.000000D+00  E=-6.407732D-01

 Vector    4  Occ=2.000000D+00  E=-5.216364D-01

 Vector    5  Occ=2.000000D+00  E=-3.491351D-01

 Vector    6  Occ=0.000000D+00  E=-1.275067D-01

 Vector    7  Occ=0.000000D+00  E= 1.606166D-01

 Vector    8  Occ=0.000000D+00  E= 3.886424D-01

 Vector    9  Occ=0.000000D+00  E= 5.674914D-01

 Vector   10  Occ=0.000000D+00  E= 6.582639D-01

 Vector   11  Occ=0.000000D+00  E= 7.080819D-01

 Vector   12  Occ=0.000000D+00  E= 7.240312D-01

 Vector   13  Occ=0.000000D+00  E= 7.559717D-01

 Vector   14  Occ=0.000000D+00  E= 7.909657D-01

 Vector   15  Occ=0.000000D+00  E= 8.573222D-01

       Multipole analysis of the density wrt the origin
       ------------------------------------------------

     L   x y z        total         open         nuclear
     -   - - -        -----         ----         -------
     0   0 0 0     -0.000000      0.000000     10.000000

     1   1 0 0      0.630709      0.000000     -0.000000
     1   0 1 0      0.439488      0.000000      0.000000
     1   0 0 1     -0.000000      0.000000      0.000000

     2   2 0 0     -4.790035      0.000000      2.679864
     2   1 1 0     -0.953180      0.000000     -1.961596
     2   1 0 1      0.000000      0.000000      0.000000
     2   0 2 0     -0.980984      0.000000     28.622305
     2   0 1 1      0.000000      0.000000      0.000000

 CCSD total energy / hartree       =       -76.119484461896874
         Total SCF energy =    -75.711577440386
 CCSD total energy / hartree       =       -75.900762209246508
 Total times  cpu:        8.1s     wall:        8.4s
