============================== echo of input deck ==============================

echo
start H4
title "H4"

memory total 12 gb

geometry units bohr
symmetry c1
H 0 0 0
H 0 0 2.91
H 0 0 5.82
H 0 0 8.73
end

basis spherical
  * library cc-pVTZ
end

scf
  vectors input H4.mos
  vectors output H4.mos
end

tce
  2eorb
  2emet 13
  ccsd
  maxiter 300
end

# set tce:print_integrals T
# set tce:qorb 4
# set tce:qela 2
# set tce:qelb 2

set tce:qducc T
set tce:nactv 2
set tce:nonhf T
set tce:ducc_model 6

set tce:printtol 0.02

task tce
================================================================================

 Output coordinates in a.u. (scale by  1.000000000 to convert to a.u.)

  No.       Tag          Charge          X              Y              Z
 ---- ---------------- ---------- -------------- -------------- --------------
    1 H                    1.0000     0.00000000     0.00000000    -4.36500000
    2 H                    1.0000     0.00000000     0.00000000    -1.45500000
    3 H                    1.0000     0.00000000     0.00000000     1.45500000
    4 H                    1.0000     0.00000000     0.00000000     4.36500000

         Total SCF energy =     -1.994474530227

 Vector    1  Occ=2.000000D+00  E=-4.983516D-01

 Vector    2  Occ=2.000000D+00  E=-3.934180D-01

 Vector    3  Occ=0.000000D+00  E=-3.560157D-02

 Vector    4  Occ=0.000000D+00  E= 1.326053D-01

 Vector    5  Occ=0.000000D+00  E= 3.614412D-01

 Vector    6  Occ=0.000000D+00  E= 3.993492D-01

 Vector    7  Occ=0.000000D+00  E= 4.501413D-01

 Vector    8  Occ=0.000000D+00  E= 5.446213D-01

 Vector    9  Occ=0.000000D+00  E= 6.090109D-01

 Vector   10  Occ=0.000000D+00  E= 6.090109D-01

 Vector   11  Occ=0.000000D+00  E= 7.009827D-01

 Vector   12  Occ=0.000000D+00  E= 7.009827D-01

       Multipole analysis of the density wrt the origin
       ------------------------------------------------

     L   x y z        total         open         nuclear
     -   - - -        -----         ----         -------
     0   0 0 0      0.000000      0.000000      4.000000

     1   1 0 0      0.000000      0.000000      0.000000
     1   0 1 0     -0.000000      0.000000      0.000000
     1   0 0 1      0.000000      0.000000     -0.000000

     2   2 0 0     -4.578374      0.000000      0.000000
     2   1 1 0      0.000000      0.000000      0.000000
     2   1 0 1      0.000000      0.000000      0.000000
     2   0 2 0     -4.578374      0.000000      0.000000
     2   0 1 1     -0.000000      0.000000      0.000000

 CCSD total energy / hartree       =        -2.124059861843276
 Total times  cpu:      112.2s     wall:      113.5s
