============================== echo of input deck ==============================
 echo
 start H2O
 title "H2O"

 memory total 24 gb

 geometry units bohr
 symmetry c1
        O  0.00000000  0.00000000  0.00000000
        H  0.00000000  1.511629  0.00000000
        H  1.72558000 -0.64860000  0.00000000
 end

 basis spherical
   * library cc-pVTZ
 end

 mcscf
   active  8
   actelec 10
   multiplicity 1
   maxiter 40
   vectors input h2o.mos
   vectors output h2o.mos
 end

 task mcscf

 scf
   vectors input h2o.mos
   vectors output h2o-trash.mos
   noscf
 end

 tce
   2eorb
   2emet 13
   ccsd
 end

# set tce:print_integrals T
# set tce:qorb 8
# set tce:qela 5
# set tce:qelb 5

 set tce:qducc T
 set tce:nactv 3
 set tce:nonhf T
 set tce:ducc_model 6

 set tce:printtol 0.02

 task tce
================================================================================

 Output coordinates in a.u. (scale by  1.000000000 to convert to a.u.)

  No.       Tag          Charge          X              Y              Z
 ---- ---------------- ---------- -------------- -------------- --------------
    1 O                    8.0000    -0.17255800    -0.08630290     0.00000000
    2 H                    1.0000    -0.17255800     1.42532610     0.00000000
    3 H                    1.0000     1.55302200    -0.73490290     0.00000000

 Vector    1  Occ=1.999987D+00  E=-2.052836D+01  Symmetry=a

 Vector    2  Occ=1.999183D+00  E=-1.398259D+00  Symmetry=a

 Vector    3  Occ=1.984960D+00  E=-7.869404D-01  Symmetry=a

 Vector    4  Occ=1.983783D+00  E=-5.952597D-01  Symmetry=a

 Vector    5  Occ=1.977988D+00  E=-5.326597D-01  Symmetry=a

 Vector    6  Occ=2.269554D-02  E=-2.560172D-02  Symmetry=a

 Vector    7  Occ=1.601529D-02  E=-1.908811D-02  Symmetry=a

 Vector    8  Occ=1.538832D-02  E=-1.594157D-02  Symmetry=a

 Vector    9  Occ=0.000000D+00  E= 2.716106D-01  Symmetry=a

 Vector   10  Occ=0.000000D+00  E= 3.339422D-01  Symmetry=a

 Vector   11  Occ=0.000000D+00  E= 6.247885D-01  Symmetry=a

 Vector   12  Occ=0.000000D+00  E= 6.541935D-01  Symmetry=a

 Vector   13  Occ=0.000000D+00  E= 8.099028D-01  Symmetry=a

 Vector   14  Occ=0.000000D+00  E= 8.598893D-01  Symmetry=a

 Vector   15  Occ=0.000000D+00  E= 9.739460D-01  Symmetry=a

 Vector   16  Occ=0.000000D+00  E= 1.063449D+00  Symmetry=a

 Vector   17  Occ=0.000000D+00  E= 1.219275D+00  Symmetry=a

 Vector   18  Occ=0.000000D+00  E= 1.366521D+00  Symmetry=a

         Total SCF energy =    -76.024194576810

 Vector    2  Occ=2.000000D+00  E=-1.398259D+00

 Vector    3  Occ=2.000000D+00  E=-7.869404D-01

 Vector    4  Occ=2.000000D+00  E=-5.952597D-01

 Vector    5  Occ=2.000000D+00  E=-5.326597D-01

 Vector    6  Occ=0.000000D+00  E=-2.560172D-02

 Vector    7  Occ=0.000000D+00  E=-1.908811D-02

 Vector    8  Occ=0.000000D+00  E=-1.594157D-02

 Vector    9  Occ=0.000000D+00  E= 2.716106D-01

 Vector   10  Occ=0.000000D+00  E= 3.339422D-01

 Vector   11  Occ=0.000000D+00  E= 6.247885D-01

 Vector   12  Occ=0.000000D+00  E= 6.541935D-01

 Vector   13  Occ=0.000000D+00  E= 8.099028D-01

 Vector   14  Occ=0.000000D+00  E= 8.598893D-01

 Vector   15  Occ=0.000000D+00  E= 9.739460D-01

       Multipole analysis of the density wrt the origin
       ------------------------------------------------

     L   x y z        total         open         nuclear
     -   - - -        -----         ----         -------
     0   0 0 0     -0.000000      0.000000     10.000000

     1   1 0 0      0.611233      0.000000     -0.000000
     1   0 1 0      0.348403      0.000000      0.000000
     1   0 0 1      0.000004      0.000000      0.000000

     2   2 0 0     -3.957171      0.000000      2.679864
     2   1 1 0     -0.782547      0.000000     -1.268134
     2   1 0 1      0.000000      0.000000      0.000000
     2   0 2 0     -3.720084      0.000000      2.631222
     2   0 1 1      0.000001      0.000000      0.000000

 CCSD total energy / hartree       =       -76.301778540274711
 Total times  cpu:      969.1s     wall:     1117.1s
