============================== echo of input deck ==============================
 echo
 start H2O
 title "H2O"

 memory total 24 gb

 geometry units bohr
 symmetry c1
        O  0.00000000  0.00000000  0.00000000
        H  0.00000000  1.9356225  0.00000000
        H  1.72558000 -0.64860000  0.00000000
 end

 basis spherical
   * library cc-pVTZ
 end

 mcscf
   active  8
   actelec 10
   multiplicity 1
   maxiter 40
   vectors input h2o.mos
   vectors output h2o.mos
 end

 task mcscf

 scf
   vectors input h2o.mos
   vectors output h2o-trash.mos
   noscf
 end

 tce
   2eorb
   2emet 13
   ccsd
 end

# set tce:print_integrals T
# set tce:qorb 8
# set tce:qela 5
# set tce:qelb 5

 set tce:qducc T
 set tce:nactv 3
 set tce:nonhf T
 set tce:ducc_model 6

 set tce:printtol 0.02

 task tce
================================================================================

 Output coordinates in a.u. (scale by  1.000000000 to convert to a.u.)

  No.       Tag          Charge          X              Y              Z
 ---- ---------------- ---------- -------------- -------------- --------------
    1 O                    8.0000    -0.17255800    -0.12870225     0.00000000
    2 H                    1.0000    -0.17255800     1.80692025     0.00000000
    3 H                    1.0000     1.55302200    -0.77730225     0.00000000

 Vector    1  Occ=1.999989D+00  E=-2.054814D+01  Symmetry=a

 Vector    2  Occ=1.998837D+00  E=-1.330860D+00  Symmetry=a

 Vector    3  Occ=1.981769D+00  E=-7.237637D-01  Symmetry=a

 Vector    4  Occ=1.976446D+00  E=-5.778290D-01  Symmetry=a

 Vector    5  Occ=1.973631D+00  E=-5.221654D-01  Symmetry=a

 Vector    6  Occ=2.721339D-02  E=-2.787172D-02  Symmetry=a

 Vector    7  Occ=2.426200D-02  E=-2.557010D-02  Symmetry=a

 Vector    8  Occ=1.785381D-02  E=-1.598496D-02  Symmetry=a

 Vector    9  Occ=0.000000D+00  E= 2.995266D-01  Symmetry=a

 Vector   10  Occ=0.000000D+00  E= 3.352507D-01  Symmetry=a

 Vector   11  Occ=0.000000D+00  E= 6.120788D-01  Symmetry=a

 Vector   12  Occ=0.000000D+00  E= 6.659730D-01  Symmetry=a

 Vector   13  Occ=0.000000D+00  E= 8.123760D-01  Symmetry=a

 Vector   14  Occ=0.000000D+00  E= 8.383466D-01  Symmetry=a

 Vector   15  Occ=0.000000D+00  E= 9.731473D-01  Symmetry=a

 Vector   16  Occ=0.000000D+00  E= 1.146577D+00  Symmetry=a

 Vector   17  Occ=0.000000D+00  E= 1.159902D+00  Symmetry=a

 Vector   18  Occ=0.000000D+00  E= 1.332790D+00  Symmetry=a

         Total SCF energy =    -76.047682368510

 Vector    2  Occ=2.000000D+00  E=-1.330860D+00

 Vector    3  Occ=2.000000D+00  E=-7.237637D-01

 Vector    4  Occ=2.000000D+00  E=-5.778290D-01

 Vector    5  Occ=2.000000D+00  E=-5.221654D-01

 Vector    6  Occ=0.000000D+00  E=-2.787172D-02

 Vector    7  Occ=0.000000D+00  E=-2.557010D-02

 Vector    8  Occ=0.000000D+00  E=-1.598496D-02

 Vector    9  Occ=0.000000D+00  E= 2.995266D-01

 Vector   10  Occ=0.000000D+00  E= 3.352507D-01

 Vector   11  Occ=0.000000D+00  E= 6.120788D-01

 Vector   12  Occ=0.000000D+00  E= 6.659730D-01

 Vector   13  Occ=0.000000D+00  E= 8.123760D-01

 Vector   14  Occ=0.000000D+00  E= 8.383466D-01

 Vector   15  Occ=0.000000D+00  E= 9.731473D-01

       Multipole analysis of the density wrt the origin
       ------------------------------------------------

     L   x y z        total         open         nuclear
     -   - - -        -----         ----         -------
     0   0 0 0     -0.000000      0.000000     10.000000

     1   1 0 0      0.584211      0.000000     -0.000000
     1   0 1 0      0.422430      0.000000      0.000000
     1   0 0 1     -0.000008      0.000000      0.000000

     2   2 0 0     -4.144180      0.000000      2.679864
     2   1 1 0     -0.825420      0.000000     -1.341297
     2   1 0 1     -0.000006      0.000000      0.000000
     2   0 2 0     -3.419254      0.000000      4.001674
     2   0 1 1     -0.000004      0.000000      0.000000

 CCSD total energy / hartree       =       -76.331764250921339
 Total times  cpu:      569.4s     wall:      573.4s
