============================== echo of input deck ==============================
 echo
 start H2O
 title "H2O"

 memory total 24 gb

 geometry units bohr
 symmetry c1
        O  0.00000000  0.00000000  0.00000000
        H  0.00000000  4.608625  0.00000000
        H  1.72558000 -0.64860000  0.00000000
 end

 basis spherical
   * library cc-pVTZ
 end

 mcscf
   active  8
   actelec 10
   multiplicity 1
   maxiter 40
   vectors input h2o.mos
   vectors output h2o.mos
 end

 task mcscf

 scf
   vectors input h2o.mos
   vectors output h2o-trash.mos
   noscf
 end

 tce
   2eorb
   2emet 13
   ccsd
 end

# set tce:print_integrals T
# set tce:qorb 8
# set tce:qela 5
# set tce:qelb 5

 set tce:qducc T
 set tce:nactv 3
 set tce:nonhf T
 set tce:ducc_model 6

 set tce:printtol 0.02

 task tce
================================================================================

 Output coordinates in a.u. (scale by  1.000000000 to convert to a.u.)

  No.       Tag          Charge          X              Y              Z
 ---- ---------------- ---------- -------------- -------------- --------------
    1 O                    8.0000    -0.17255800    -0.39600250     0.00000000
    2 H                    1.0000    -0.17255800     4.21262250     0.00000000
    3 H                    1.0000     1.55302200    -1.04460250     0.00000000

 Vector    1  Occ=1.999992D+00  E=-2.061136D+01  Symmetry=a

 Vector    2  Occ=1.998780D+00  E=-1.307137D+00  Symmetry=a

 Vector    3  Occ=1.985159D+00  E=-6.723577D-01  Symmetry=a

 Vector    4  Occ=1.974708D+00  E=-5.492844D-01  Symmetry=a

 Vector    5  Occ=1.326384D+00  E=-3.680765D-01  Symmetry=a

 Vector    6  Occ=6.739013D-01  E=-2.021890D-01  Symmetry=a

 Vector    7  Occ=2.640875D-02  E=-2.617446D-02  Symmetry=a

 Vector    8  Occ=1.466639D-02  E=-1.290905D-02  Symmetry=a

 Vector    9  Occ=0.000000D+00  E= 2.832504D-01  Symmetry=a

 Vector   10  Occ=0.000000D+00  E= 4.080464D-01  Symmetry=a

 Vector   11  Occ=0.000000D+00  E= 6.277031D-01  Symmetry=a

 Vector   12  Occ=0.000000D+00  E= 6.972317D-01  Symmetry=a

 Vector   13  Occ=0.000000D+00  E= 7.806029D-01  Symmetry=a

 Vector   14  Occ=0.000000D+00  E= 8.216908D-01  Symmetry=a

 Vector   15  Occ=0.000000D+00  E= 8.464240D-01  Symmetry=a

 Vector   16  Occ=0.000000D+00  E= 8.992270D-01  Symmetry=a

 Vector   17  Occ=0.000000D+00  E= 9.822561D-01  Symmetry=a

 Vector   18  Occ=0.000000D+00  E= 1.225367D+00  Symmetry=a

         Total SCF energy =    -75.734275794670

 Vector    2  Occ=2.000000D+00  E=-1.307137D+00

 Vector    3  Occ=2.000000D+00  E=-6.723577D-01

 Vector    4  Occ=2.000000D+00  E=-5.492844D-01

 Vector    5  Occ=2.000000D+00  E=-3.680765D-01

 Vector    6  Occ=0.000000D+00  E=-2.021890D-01

 Vector    7  Occ=0.000000D+00  E=-2.617446D-02

 Vector    8  Occ=0.000000D+00  E=-1.290905D-02

 Vector    9  Occ=0.000000D+00  E= 2.832504D-01

 Vector   10  Occ=0.000000D+00  E= 4.080464D-01

 Vector   11  Occ=0.000000D+00  E= 6.277031D-01

 Vector   12  Occ=0.000000D+00  E= 6.972317D-01

 Vector   13  Occ=0.000000D+00  E= 7.806029D-01

 Vector   14  Occ=0.000000D+00  E= 8.216908D-01

 Vector   15  Occ=0.000000D+00  E= 8.464240D-01

       Multipole analysis of the density wrt the origin
       ------------------------------------------------

     L   x y z        total         open         nuclear
     -   - - -        -----         ----         -------
     0   0 0 0     -0.000000      0.000000     10.000000

     1   1 0 0      0.589854      0.000000     -0.000000
     1   0 1 0     -0.060382      0.000000      0.000000
     1   0 0 1      0.000000      0.000000      0.000000

     2   2 0 0     -4.486306      0.000000      2.679864
     2   1 1 0     -0.669715      0.000000     -1.802545
     2   1 0 1     -0.000000      0.000000      0.000000
     2   0 2 0     -3.553350      0.000000     20.091927
     2   0 1 1     -0.000000      0.000000      0.000000

 CCSD total energy / hartree       =       -76.129408108752145
 Total times  cpu:      524.1s     wall:      531.5s
