============================== echo of input deck ==============================

echo
start H6
title "H6"

memory total 80 gb

geometry units bohr
symmetry c1
H 0 0 0
H 0 0 2.11
H 0 0 4.22
H 0 0 6.33
H 0 0 8.44
H 0 0 10.55
end

basis spherical
  * library cc-pVTZ
end

scf
thresh 1e-8
end

tce
  2eorb
  2emet 13
  ccsd
  thresh 1e-8
  maxiter 300
end

# set tce:print_integrals T
# set tce:qorb 6
# set tce:qela 3
# set tce:qelb 3

set tce:qducc T
set tce:nactv 3
set tce:nonhf T
set tce:ducc_model 6

set tce:printtol 0.02

task tce
================================================================================

 Output coordinates in a.u. (scale by  1.000000000 to convert to a.u.)

  No.       Tag          Charge          X              Y              Z
 ---- ---------------- ---------- -------------- -------------- --------------
    1 H                    1.0000     0.00000000     0.00000000    -5.27500000
    2 H                    1.0000     0.00000000     0.00000000    -3.16500000
    3 H                    1.0000     0.00000000     0.00000000    -1.05500000
    4 H                    1.0000     0.00000000     0.00000000     1.05500000
    5 H                    1.0000     0.00000000     0.00000000     3.16500000
    6 H                    1.0000     0.00000000     0.00000000     5.27500000

         Total SCF energy =     -3.203260328149

 Vector    1  Occ=2.000000D+00  E=-6.474042D-01

 Vector    2  Occ=2.000000D+00  E=-5.445907D-01

 Vector    3  Occ=2.000000D+00  E=-3.887828D-01

 Vector    4  Occ=0.000000D+00  E= 1.812450D-02

 Vector    5  Occ=0.000000D+00  E= 1.850794D-01

 Vector    6  Occ=0.000000D+00  E= 2.984407D-01

 Vector    7  Occ=0.000000D+00  E= 3.317596D-01

 Vector    8  Occ=0.000000D+00  E= 4.177539D-01

 Vector    9  Occ=0.000000D+00  E= 4.576808D-01

 Vector   10  Occ=0.000000D+00  E= 5.649672D-01

 Vector   11  Occ=0.000000D+00  E= 5.649672D-01

 Vector   12  Occ=0.000000D+00  E= 6.062278D-01

 Vector   13  Occ=0.000000D+00  E= 6.275591D-01

       Multipole analysis of the density wrt the origin
       ------------------------------------------------

     L   x y z        total         open         nuclear
     -   - - -        -----         ----         -------
     0   0 0 0     -0.000000      0.000000      6.000000

     1   1 0 0     -0.000000      0.000000      0.000000
     1   0 1 0     -0.000000      0.000000      0.000000
     1   0 0 1      0.000000      0.000000     -0.000000

     2   2 0 0     -5.512300      0.000000      0.000000
     2   1 1 0     -0.000000      0.000000      0.000000
     2   1 0 1     -0.000000      0.000000      0.000000
     2   0 2 0     -5.512300      0.000000      0.000000
     2   0 1 1     -0.000000      0.000000      0.000000

 CCSD total energy / hartree       =        -3.356411785687671
 Total times  cpu:     1574.2s     wall:     1574.2s
