============================== echo of input deck ==============================
 echo
 start H2O
 title "H2O"

 memory total 24 gb

 geometry units bohr
 symmetry c1
        O  0.00000000  0.00000000  0.00000000
        H  0.00000000  1.585367  0.00000000
        H  1.72558000 -0.64860000  0.00000000
 end

 basis spherical
   * library cc-pVTZ
 end

 mcscf
   active  8
   actelec 10
   multiplicity 1
   maxiter 40
   vectors input h2o.mos
   vectors output h2o.mos
 end

 task mcscf

 scf
   vectors input h2o.mos
   vectors output h2o-trash.mos
   noscf
 end

 tce
   2eorb
   2emet 13
   ccsd
 end

# set tce:print_integrals T
# set tce:qorb
# set tce:qela
# set tce:qelb

 set tce:qducc T
 set tce:nactv 3
 set tce:nonhf T
 set tce:ducc_model 3

 set tce:printtol 0.02

 task tce
================================================================================

 Output coordinates in a.u. (scale by  1.000000000 to convert to a.u.)

  No.       Tag          Charge          X              Y              Z
 ---- ---------------- ---------- -------------- -------------- --------------
    1 O                    8.0000    -0.17255800    -0.09367670     0.00000000
    2 H                    1.0000    -0.17255800     1.49169030     0.00000000
    3 H                    1.0000     1.55302200    -0.74227670     0.00000000

 Vector    1  Occ=1.999988D+00  E=-2.053218D+01  Symmetry=a

 Vector    2  Occ=1.999131D+00  E=-1.383152D+00  Symmetry=a

 Vector    3  Occ=1.983522D+00  E=-7.752147D-01  Symmetry=a

 Vector    4  Occ=1.983433D+00  E=-5.922370D-01  Symmetry=a

 Vector    5  Occ=1.977757D+00  E=-5.303980D-01  Symmetry=a

 Vector    6  Occ=2.293325D-02  E=-2.559697D-02  Symmetry=a

 Vector    7  Occ=1.689914D-02  E=-2.045115D-02  Symmetry=a

 Vector    8  Occ=1.633727D-02  E=-1.597945D-02  Symmetry=a

 Vector    9  Occ=0.000000D+00  E= 2.790970D-01  Symmetry=a

 Vector   10  Occ=0.000000D+00  E= 3.348657D-01  Symmetry=a

 Vector   11  Occ=0.000000D+00  E= 6.181173D-01  Symmetry=a

 Vector   12  Occ=0.000000D+00  E= 6.529557D-01  Symmetry=a

 Vector   13  Occ=0.000000D+00  E= 8.096327D-01  Symmetry=a

 Vector   14  Occ=0.000000D+00  E= 8.564874D-01  Symmetry=a

 Vector   15  Occ=0.000000D+00  E= 9.740443D-01  Symmetry=a

 Vector   16  Occ=0.000000D+00  E= 1.078301D+00  Symmetry=a

 Vector   17  Occ=0.000000D+00  E= 1.208016D+00  Symmetry=a

 Vector   18  Occ=0.000000D+00  E= 1.370793D+00  Symmetry=a

         Total SCF energy =    -76.040422777099

 Vector    2  Occ=2.000000D+00  E=-1.383152D+00

 Vector    3  Occ=2.000000D+00  E=-7.752147D-01

 Vector    4  Occ=2.000000D+00  E=-5.922370D-01

 Vector    5  Occ=2.000000D+00  E=-5.303980D-01

 Vector    6  Occ=0.000000D+00  E=-2.559697D-02

 Vector    7  Occ=0.000000D+00  E=-2.045115D-02

 Vector    8  Occ=0.000000D+00  E=-1.597945D-02

 Vector    9  Occ=0.000000D+00  E= 2.790970D-01

 Vector   10  Occ=0.000000D+00  E= 3.348657D-01

 Vector   11  Occ=0.000000D+00  E= 6.181173D-01

 Vector   12  Occ=0.000000D+00  E= 6.529557D-01

 Vector   13  Occ=0.000000D+00  E= 8.096327D-01

 Vector   14  Occ=0.000000D+00  E= 8.564874D-01

 Vector   15  Occ=0.000000D+00  E= 9.740443D-01

       Multipole analysis of the density wrt the origin
       ------------------------------------------------

     L   x y z        total         open         nuclear
     -   - - -        -----         ----         -------
     0   0 0 0     -0.000000      0.000000     10.000000

     1   1 0 0      0.605860      0.000000     -0.000000
     1   0 1 0      0.362002      0.000000      0.000000
     1   0 0 1     -0.000001      0.000000      0.000000

     2   2 0 0     -3.991647      0.000000      2.679864
     2   1 1 0     -0.789964      0.000000     -1.280858
     2   1 0 1     -0.000000      0.000000      0.000000
     2   0 2 0     -3.675649      0.000000      2.846317
     2   0 1 1     -0.000000      0.000000      0.000000

 CCSD total energy / hartree       =       -76.318990263336588
 Total times  cpu:       39.3s     wall:       45.7s
