============================== echo of input deck ==============================
 echo
 start H2O
 title "H2O"

 memory total 24 gb

 geometry units bohr
 symmetry c1
        O  0.00000000  0.00000000  0.00000000
        H  0.00000000  1.6038015  0.00000000
        H  1.72558000 -0.64860000  0.00000000
 end

 basis spherical
   * library cc-pVTZ
 end

 mcscf
   active  8
   actelec 10
   multiplicity 1
   maxiter 40
   vectors input h2o.mos
   vectors output h2o.mos
 end

 task mcscf

 scf
   vectors input h2o.mos
   vectors output h2o-trash.mos
   noscf
 end

 tce
   2eorb
   2emet 13
   ccsd
 end

# set tce:print_integrals T
# set tce:qorb 8
# set tce:qela 5
# set tce:qelb 5

 set tce:qducc T
 set tce:nactv 3
 set tce:nonhf T
 set tce:ducc_model 3

 set tce:printtol 0.02

 task tce
================================================================================

 Output coordinates in a.u. (scale by  1.000000000 to convert to a.u.)

  No.       Tag          Charge          X              Y              Z
 ---- ---------------- ---------- -------------- -------------- --------------
    1 O                    8.0000    -0.17255800    -0.09552015     0.00000000
    2 H                    1.0000    -0.17255800     1.50828135     0.00000000
    3 H                    1.0000     1.55302200    -0.74412015     0.00000000

 Vector    1  Occ=1.999988D+00  E=-2.053316D+01  Symmetry=a

 Vector    2  Occ=1.999118D+00  E=-1.379523D+00  Symmetry=a

 Vector    3  Occ=1.983344D+00  E=-7.722987D-01  Symmetry=a

 Vector    4  Occ=1.983130D+00  E=-5.914912D-01  Symmetry=a

 Vector    5  Occ=1.977695D+00  E=-5.298206D-01  Symmetry=a

 Vector    6  Occ=2.299720D-02  E=-2.561206D-02  Symmetry=a

 Vector    7  Occ=1.730906D-02  E=-2.072982D-02  Symmetry=a

 Vector    8  Occ=1.641999D-02  E=-1.598581D-02  Symmetry=a

 Vector    9  Occ=0.000000D+00  E= 2.796423D-01  Symmetry=a

 Vector   10  Occ=0.000000D+00  E= 3.347710D-01  Symmetry=a

 Vector   11  Occ=0.000000D+00  E= 6.168761D-01  Symmetry=a

 Vector   12  Occ=0.000000D+00  E= 6.530350D-01  Symmetry=a

 Vector   13  Occ=0.000000D+00  E= 8.096820D-01  Symmetry=a

 Vector   14  Occ=0.000000D+00  E= 8.556048D-01  Symmetry=a

 Vector   15  Occ=0.000000D+00  E= 9.740494D-01  Symmetry=a

 Vector   16  Occ=0.000000D+00  E= 1.081408D+00  Symmetry=a

 Vector   17  Occ=0.000000D+00  E= 1.205155D+00  Symmetry=a

 Vector   18  Occ=0.000000D+00  E= 1.371583D+00  Symmetry=a

         Total SCF energy =    -76.043355102991

 Vector    2  Occ=2.000000D+00  E=-1.379523D+00

 Vector    3  Occ=2.000000D+00  E=-7.722987D-01

 Vector    4  Occ=2.000000D+00  E=-5.914912D-01

 Vector    5  Occ=2.000000D+00  E=-5.298206D-01

 Vector    6  Occ=0.000000D+00  E=-2.561206D-02

 Vector    7  Occ=0.000000D+00  E=-2.072982D-02

 Vector    8  Occ=0.000000D+00  E=-1.598581D-02

 Vector    9  Occ=0.000000D+00  E= 2.796423D-01

 Vector   10  Occ=0.000000D+00  E= 3.347710D-01

 Vector   11  Occ=0.000000D+00  E= 6.168761D-01

 Vector   12  Occ=0.000000D+00  E= 6.530350D-01

 Vector   13  Occ=0.000000D+00  E= 8.096820D-01

 Vector   14  Occ=0.000000D+00  E= 8.556048D-01

 Vector   15  Occ=0.000000D+00  E= 9.740494D-01

       Multipole analysis of the density wrt the origin
       ------------------------------------------------

     L   x y z        total         open         nuclear
     -   - - -        -----         ----         -------
     0   0 0 0     -0.000000      0.000000     10.000000

     1   1 0 0      0.604589      0.000000     -0.000000
     1   0 1 0      0.365397      0.000000      0.000000
     1   0 0 1     -0.000003      0.000000      0.000000

     2   2 0 0     -4.000142      0.000000      2.679864
     2   1 1 0     -0.791870      0.000000     -1.284039
     2   1 0 1     -0.000000      0.000000      0.000000
     2   0 2 0     -3.663964      0.000000      2.901620
     2   0 1 1     -0.000001      0.000000      0.000000

 CCSD total energy / hartree       =       -76.322180613457078
 Total times  cpu:      101.7s     wall:      116.9s
