============================== echo of input deck ==============================
 echo
 start H2O
 title "H2O"

 memory total 24 gb

 geometry units bohr
 symmetry c1
        O  0.00000000  0.00000000  0.00000000
        H  0.00000000  1.64988775  0.00000000
        H  1.72558000 -0.64860000  0.00000000
 end

 basis spherical
   * library cc-pVTZ
 end

 mcscf
   active  8
   actelec 10
   multiplicity 1
   maxiter 40
   vectors input h2o.mos
   vectors output h2o.mos
 end

 task mcscf

 scf
   vectors input h2o.mos
   vectors output h2o-trash.mos
   noscf
 end

 tce
   2eorb
   2emet 13
   ccsd
 end

# set tce:print_integrals T
# set tce:qorb 8
# set tce:qela 5
# set tce:qelb 5

 set tce:qducc T
 set tce:nactv 3
 set tce:nonhf T
 set tce:ducc_model 3

 set tce:printtol 0.02

 task tce
================================================================================

 Output coordinates in a.u. (scale by  1.000000000 to convert to a.u.)

  No.       Tag          Charge          X              Y              Z
 ---- ---------------- ---------- -------------- -------------- --------------
    1 O                    8.0000    -0.17255800    -0.10012878     0.00000000
    2 H                    1.0000    -0.17255800     1.54975898     0.00000000
    3 H                    1.0000     1.55302200    -0.74872878     0.00000000

 Vector    1  Occ=1.999988D+00  E=-2.053543D+01  Symmetry=a

 Vector    2  Occ=1.999084D+00  E=-1.371145D+00  Symmetry=a

 Vector    3  Occ=1.983118D+00  E=-7.651182D-01  Symmetry=a

 Vector    4  Occ=1.982097D+00  E=-5.896433D-01  Symmetry=a

 Vector    5  Occ=1.977533D+00  E=-5.285482D-01  Symmetry=a

 Vector    6  Occ=2.316367D-02  E=-2.562633D-02  Symmetry=a

 Vector    7  Occ=1.838920D-02  E=-2.163202D-02  Symmetry=a

 Vector    8  Occ=1.662810D-02  E=-1.600370D-02  Symmetry=a

 Vector    9  Occ=0.000000D+00  E= 2.837311D-01  Symmetry=a

 Vector   10  Occ=0.000000D+00  E= 3.351562D-01  Symmetry=a

 Vector   11  Occ=0.000000D+00  E= 6.146036D-01  Symmetry=a

 Vector   12  Occ=0.000000D+00  E= 6.529491D-01  Symmetry=a

 Vector   13  Occ=0.000000D+00  E= 8.096580D-01  Symmetry=a

 Vector   14  Occ=0.000000D+00  E= 8.533470D-01  Symmetry=a

 Vector   15  Occ=0.000000D+00  E= 9.740223D-01  Symmetry=a

 Vector   16  Occ=0.000000D+00  E= 1.091019D+00  Symmetry=a

 Vector   17  Occ=0.000000D+00  E= 1.197895D+00  Symmetry=a

 Vector   18  Occ=0.000000D+00  E= 1.374407D+00  Symmetry=a

         Total SCF energy =    -76.049013580223

 Vector    2  Occ=2.000000D+00  E=-1.371145D+00

 Vector    3  Occ=2.000000D+00  E=-7.651182D-01

 Vector    4  Occ=2.000000D+00  E=-5.896433D-01

 Vector    5  Occ=2.000000D+00  E=-5.285482D-01

 Vector    6  Occ=0.000000D+00  E=-2.562633D-02

 Vector    7  Occ=0.000000D+00  E=-2.163202D-02

 Vector    8  Occ=0.000000D+00  E=-1.600370D-02

 Vector    9  Occ=0.000000D+00  E= 2.837311D-01

 Vector   10  Occ=0.000000D+00  E= 3.351562D-01

 Vector   11  Occ=0.000000D+00  E= 6.146036D-01

 Vector   12  Occ=0.000000D+00  E= 6.529491D-01

 Vector   13  Occ=0.000000D+00  E= 8.096580D-01

 Vector   14  Occ=0.000000D+00  E= 8.533470D-01

 Vector   15  Occ=0.000000D+00  E= 9.740223D-01

       Multipole analysis of the density wrt the origin
       ------------------------------------------------

     L   x y z        total         open         nuclear
     -   - - -        -----         ----         -------
     0   0 0 0     -0.000000      0.000000     10.000000

     1   1 0 0      0.601432      0.000000     -0.000000
     1   0 1 0      0.373920      0.000000     -0.000000
     1   0 0 1     -0.000002      0.000000      0.000000

     2   2 0 0     -4.021196      0.000000      2.679864
     2   1 1 0     -0.796642      0.000000     -1.291991
     2   1 0 1     -0.000000      0.000000      0.000000
     2   0 2 0     -3.633599      0.000000      3.042554
     2   0 1 1     -0.000001      0.000000      0.000000

 CCSD total energy / hartree       =       -76.328502553909658
 Total times  cpu:      101.8s     wall:      117.1s
