============================== echo of input deck ==============================
 echo
 start H2O
 title "H2O"

 memory total 24 gb

 geometry units bohr
 symmetry c1
        O  0.00000000  0.00000000  0.00000000
        H  0.00000000  1.79736375  0.00000000
        H  1.72558000 -0.64860000  0.00000000
 end

 basis spherical
   * library cc-pVTZ
 end

 mcscf
   active  8
   actelec 10
   multiplicity 1
   maxiter 40
   vectors input h2o.mos
   vectors output h2o.mos
 end

 task mcscf

 scf
   vectors input h2o.mos
   vectors output h2o-trash.mos
   noscf
 end

 tce
   2eorb
   2emet 13
   ccsd
 end

# set tce:print_integrals T
# set tce:qorb 8
# set tce:qela 5
# set tce:qelb 5

 set tce:qducc T
 set tce:nactv 3
 set tce:nonhf T
 set tce:ducc_model 3

 set tce:printtol 0.02

 task tce
================================================================================

 Output coordinates in a.u. (scale by  1.000000000 to convert to a.u.)

  No.       Tag          Charge          X              Y              Z
 ---- ---------------- ---------- -------------- -------------- --------------
    1 O                    8.0000    -0.17255800    -0.11487638     0.00000000
    2 H                    1.0000    -0.17255800     1.68248738     0.00000000
    3 H                    1.0000     1.55302200    -0.76347638     0.00000000

 Vector    1  Occ=1.999988D+00  E=-2.054231D+01  Symmetry=a

 Vector    2  Occ=1.998964D+00  E=-1.347992D+00  Symmetry=a

 Vector    3  Occ=1.982400D+00  E=-7.429710D-01  Symmetry=a

 Vector    4  Occ=1.978232D+00  E=-5.837127D-01  Symmetry=a

 Vector    5  Occ=1.976961D+00  E=-5.249326D-01  Symmetry=a

 Vector    6  Occ=2.376000D-02  E=-2.585778D-02  Symmetry=a

 Vector    7  Occ=2.240934D-02  E=-2.446696D-02  Symmetry=a

 Vector    8  Occ=1.728516D-02  E=-1.602329D-02  Symmetry=a

 Vector    9  Occ=0.000000D+00  E= 2.932079D-01  Symmetry=a

 Vector   10  Occ=0.000000D+00  E= 3.354949D-01  Symmetry=a

 Vector   11  Occ=0.000000D+00  E= 6.120887D-01  Symmetry=a

 Vector   12  Occ=0.000000D+00  E= 6.565546D-01  Symmetry=a

 Vector   13  Occ=0.000000D+00  E= 8.104138D-01  Symmetry=a

 Vector   14  Occ=0.000000D+00  E= 8.457578D-01  Symmetry=a

 Vector   15  Occ=0.000000D+00  E= 9.737082D-01  Symmetry=a

 Vector   16  Occ=0.000000D+00  E= 1.122682D+00  Symmetry=a

 Vector   17  Occ=0.000000D+00  E= 1.174674D+00  Symmetry=a

 Vector   18  Occ=0.000000D+00  E= 1.380124D+00  Symmetry=a

         Total SCF energy =    -76.054478914320

 Vector    2  Occ=2.000000D+00  E=-1.347992D+00

 Vector    3  Occ=2.000000D+00  E=-7.429710D-01

 Vector    4  Occ=2.000000D+00  E=-5.837127D-01

 Vector    5  Occ=2.000000D+00  E=-5.249326D-01

 Vector    6  Occ=0.000000D+00  E=-2.585778D-02

 Vector    7  Occ=0.000000D+00  E=-2.446696D-02

 Vector    8  Occ=0.000000D+00  E=-1.602329D-02

 Vector    9  Occ=0.000000D+00  E= 2.932079D-01

 Vector   10  Occ=0.000000D+00  E= 3.354949D-01

 Vector   11  Occ=0.000000D+00  E= 6.120887D-01

 Vector   12  Occ=0.000000D+00  E= 6.565546D-01

 Vector   13  Occ=0.000000D+00  E= 8.104138D-01

 Vector   14  Occ=0.000000D+00  E= 8.457578D-01

 Vector   15  Occ=0.000000D+00  E= 9.737082D-01

       Multipole analysis of the density wrt the origin
       ------------------------------------------------

     L   x y z        total         open         nuclear
     -   - - -        -----         ----         -------
     0   0 0 0     -0.000000      0.000000     10.000000

     1   1 0 0      0.592023      0.000000     -0.000000
     1   0 1 0      0.400304      0.000000     -0.000000
     1   0 0 1      0.000001      0.000000      0.000000

     2   2 0 0     -4.086415      0.000000      2.679864
     2   1 1 0     -0.811824      0.000000     -1.317440
     2   1 0 1     -0.000003      0.000000      0.000000
     2   0 2 0     -3.527667      0.000000      3.519233
     2   0 1 1     -0.000002      0.000000      0.000000

 CCSD total energy / hartree       =       -76.336246720147102
 Total times  cpu:      104.0s     wall:      121.4s
