============================== echo of input deck ==============================
 echo
 start H2O
 title "H2O"

 memory total 24 gb

 geometry units bohr
 symmetry c1
        O  0.00000000  0.00000000  0.00000000
        H  0.00000000  1.7881465  0.00000000
        H  1.72558000 -0.64860000  0.00000000
 end

 basis spherical
   * library cc-pVTZ
 end

 mcscf
   active  8
   actelec 10
   multiplicity 1
   maxiter 40
   vectors input h2o.mos
   vectors output h2o.mos
 end

 task mcscf

 scf
   vectors input h2o.mos
   vectors output h2o-trash.mos
   noscf
 end

 tce
   2eorb
   2emet 13
   ccsd
 end

# set tce:print_integrals T
# set tce:qorb
# set tce:qela
# set tce:qelb

 set tce:qducc T
 set tce:nactv 3
 set tce:nonhf T
 set tce:ducc_model 3

 set tce:printtol 0.02

 task tce
================================================================================

 Output coordinates in a.u. (scale by  1.000000000 to convert to a.u.)

  No.       Tag          Charge          X              Y              Z
 ---- ---------------- ---------- -------------- -------------- --------------
    1 O                    8.0000    -0.17255800    -0.11395465     0.00000000
    2 H                    1.0000    -0.17255800     1.67419185     0.00000000
    3 H                    1.0000     1.55302200    -0.76255465     0.00000000

 Vector    1  Occ=1.999988D+00  E=-2.054191D+01  Symmetry=a

 Vector    2  Occ=1.998972D+00  E=-1.349281D+00  Symmetry=a

 Vector    3  Occ=1.982444D+00  E=-7.443097D-01  Symmetry=a

 Vector    4  Occ=1.978499D+00  E=-5.840889D-01  Symmetry=a

 Vector    5  Occ=1.977000D+00  E=-5.251363D-01  Symmetry=a

 Vector    6  Occ=2.371744D-02  E=-2.582256D-02  Symmetry=a

 Vector    7  Occ=2.213402D-02  E=-2.430114D-02  Symmetry=a

 Vector    8  Occ=1.724529D-02  E=-1.602386D-02  Symmetry=a

 Vector    9  Occ=0.000000D+00  E= 2.926940D-01  Symmetry=a

 Vector   10  Occ=0.000000D+00  E= 3.354910D-01  Symmetry=a

 Vector   11  Occ=0.000000D+00  E= 6.121142D-01  Symmetry=a

 Vector   12  Occ=0.000000D+00  E= 6.561376D-01  Symmetry=a

 Vector   13  Occ=0.000000D+00  E= 8.103290D-01  Symmetry=a

 Vector   14  Occ=0.000000D+00  E= 8.462443D-01  Symmetry=a

 Vector   15  Occ=0.000000D+00  E= 9.737369D-01  Symmetry=a

 Vector   16  Occ=0.000000D+00  E= 1.120656D+00  Symmetry=a

 Vector   17  Occ=0.000000D+00  E= 1.176098D+00  Symmetry=a

 Vector   18  Occ=0.000000D+00  E= 1.380355D+00  Symmetry=a

         Total SCF energy =    -76.054589903949

 Vector    2  Occ=2.000000D+00  E=-1.349281D+00

 Vector    3  Occ=2.000000D+00  E=-7.443097D-01

 Vector    4  Occ=2.000000D+00  E=-5.840889D-01

 Vector    5  Occ=2.000000D+00  E=-5.251363D-01

 Vector    6  Occ=0.000000D+00  E=-2.582256D-02

 Vector    7  Occ=0.000000D+00  E=-2.430114D-02

 Vector    8  Occ=0.000000D+00  E=-1.602386D-02

 Vector    9  Occ=0.000000D+00  E= 2.926940D-01

 Vector   10  Occ=0.000000D+00  E= 3.354910D-01

 Vector   11  Occ=0.000000D+00  E= 6.121142D-01

 Vector   12  Occ=0.000000D+00  E= 6.561376D-01

 Vector   13  Occ=0.000000D+00  E= 8.103290D-01

 Vector   14  Occ=0.000000D+00  E= 8.462443D-01

 Vector   15  Occ=0.000000D+00  E= 9.737369D-01

       Multipole analysis of the density wrt the origin
       ------------------------------------------------

     L   x y z        total         open         nuclear
     -   - - -        -----         ----         -------
     0   0 0 0     -0.000000      0.000000     10.000000

     1   1 0 0      0.592576      0.000000     -0.000000
     1   0 1 0      0.398725      0.000000      0.000000
     1   0 0 1     -0.000001      0.000000      0.000000

     2   2 0 0     -4.082446      0.000000      2.679864
     2   1 1 0     -0.810889      0.000000     -1.315849
     2   1 0 1     -0.000002      0.000000      0.000000
     2   0 2 0     -3.534622      0.000000      3.488293
     2   0 1 1     -0.000002      0.000000      0.000000

 CCSD total energy / hartree       =       -76.336209116337471
 Total times  cpu:       32.1s     wall:       37.3s
