============================== echo of input deck ==============================
 echo
 start H2O
 title "H2O"

 memory total 24 gb

 geometry units bohr
 symmetry c1
        O  0.00000000  0.00000000  0.00000000
        H  0.00000000  1.98170875  0.00000000
        H  1.72558000 -0.64860000  0.00000000
 end

 basis spherical
   * library cc-pVTZ
 end

 mcscf
   active  8
   actelec 10
   multiplicity 1
   maxiter 40
   vectors input h2o.mos
   vectors output h2o.mos
 end

 task mcscf

 scf
   vectors input h2o.mos
   vectors output h2o-trash.mos
   noscf
 end

 tce
   2eorb
   2emet 13
   ccsd
 end

# set tce:print_integrals T
# set tce:qorb 8
# set tce:qela 5
# set tce:qelb 5

 set tce:qducc T
 set tce:nactv 3
 set tce:nonhf T
 set tce:ducc_model 3

 set tce:printtol 0.02

 task tce
================================================================================

 Output coordinates in a.u. (scale by  1.000000000 to convert to a.u.)

  No.       Tag          Charge          X              Y              Z
 ---- ---------------- ---------- -------------- -------------- --------------
    1 O                    8.0000    -0.17255800    -0.13331088     0.00000000
    2 H                    1.0000    -0.17255800     1.84839788     0.00000000
    3 H                    1.0000     1.55302200    -0.78191088     0.00000000

 Vector    1  Occ=1.999989D+00  E=-2.054997D+01  Symmetry=a

 Vector    2  Occ=1.998791D+00  E=-1.326085D+00  Symmetry=a

 Vector    3  Occ=1.981574D+00  E=-7.178197D-01  Symmetry=a

 Vector    4  Occ=1.976259D+00  E=-5.758025D-01  Symmetry=a

 Vector    5  Occ=1.971869D+00  E=-5.214499D-01  Symmetry=a

 Vector    6  Occ=2.903621D-02  E=-2.894750D-02  Symmetry=a

 Vector    7  Occ=2.445453D-02  E=-2.564143D-02  Symmetry=a

 Vector    8  Occ=1.802726D-02  E=-1.595937D-02  Symmetry=a

 Vector    9  Occ=0.000000D+00  E= 3.016852D-01  Symmetry=a

 Vector   10  Occ=0.000000D+00  E= 3.353231D-01  Symmetry=a

 Vector   11  Occ=0.000000D+00  E= 6.119916D-01  Symmetry=a

 Vector   12  Occ=0.000000D+00  E= 6.705731D-01  Symmetry=a

 Vector   13  Occ=0.000000D+00  E= 8.133601D-01  Symmetry=a

 Vector   14  Occ=0.000000D+00  E= 8.358388D-01  Symmetry=a

 Vector   15  Occ=0.000000D+00  E= 9.728801D-01  Symmetry=a

 Vector   16  Occ=0.000000D+00  E= 1.142670D+00  Symmetry=a

 Vector   17  Occ=0.000000D+00  E= 1.166117D+00  Symmetry=a

 Vector   18  Occ=0.000000D+00  E= 1.313082D+00  Symmetry=a

         Total SCF energy =    -76.043729152834

 Vector    2  Occ=2.000000D+00  E=-1.326085D+00

 Vector    3  Occ=2.000000D+00  E=-7.178197D-01

 Vector    4  Occ=2.000000D+00  E=-5.758025D-01

 Vector    5  Occ=2.000000D+00  E=-5.214499D-01

 Vector    6  Occ=0.000000D+00  E=-2.894750D-02

 Vector    7  Occ=0.000000D+00  E=-2.564143D-02

 Vector    8  Occ=0.000000D+00  E=-1.595937D-02

 Vector    9  Occ=0.000000D+00  E= 3.016852D-01

 Vector   10  Occ=0.000000D+00  E= 3.353231D-01

 Vector   11  Occ=0.000000D+00  E= 6.119916D-01

 Vector   12  Occ=0.000000D+00  E= 6.705731D-01

 Vector   13  Occ=0.000000D+00  E= 8.133601D-01

 Vector   14  Occ=0.000000D+00  E= 8.358388D-01

 Vector   15  Occ=0.000000D+00  E= 9.728801D-01

       Multipole analysis of the density wrt the origin
       ------------------------------------------------

     L   x y z        total         open         nuclear
     -   - - -        -----         ----         -------
     0   0 0 0     -0.000000      0.000000     10.000000

     1   1 0 0      0.581810      0.000000     -0.000000
     1   0 1 0      0.428959      0.000000      0.000000
     1   0 0 1     -0.000005      0.000000      0.000000

     2   2 0 0     -4.162671      0.000000      2.679864
     2   1 1 0     -0.829727      0.000000     -1.349250
     2   1 0 1     -0.000003      0.000000      0.000000
     2   0 2 0     -3.381871      0.000000      4.170134
     2   0 1 1     -0.000002      0.000000      0.000000

 CCSD total energy / hartree       =       -76.328617255077049
 Total times  cpu:       97.1s     wall:      110.0s
