============================== echo of input deck ==============================
 echo
 start H2O
 title "H2O"

 memory total 24 gb

 geometry units bohr
 symmetry c1
        O  0.00000000  0.00000000  0.00000000
        H  0.00000000  2.00014325  0.00000000
        H  1.72558000 -0.64860000  0.00000000
 end

 basis spherical
   * library cc-pVTZ
 end

 mcscf
   active  8
   actelec 10
   multiplicity 1
   maxiter 40
   vectors input h2o.mos
   vectors output h2o.mos
 end

 task mcscf

 scf
   vectors input h2o.mos
   vectors output h2o-trash.mos
   noscf
 end

 tce
   2eorb
   2emet 13
   ccsd
 end

# set tce:print_integrals T
# set tce:qorb 8
# set tce:qela 5
# set tce:qelb 5

 set tce:qducc T
 set tce:nactv 3
 set tce:nonhf T
 set tce:ducc_model 3

 set tce:printtol 0.02

 task tce
================================================================================

 Output coordinates in a.u. (scale by  1.000000000 to convert to a.u.)

  No.       Tag          Charge          X              Y              Z
 ---- ---------------- ---------- -------------- -------------- --------------
    1 O                    8.0000    -0.17255800    -0.13515433     0.00000000
    2 H                    1.0000    -0.17255800     1.86498893     0.00000000
    3 H                    1.0000     1.55302200    -0.78375433     0.00000000

 Vector    1  Occ=1.999989D+00  E=-2.055068D+01  Symmetry=a

 Vector    2  Occ=1.998772D+00  E=-1.324278D+00  Symmetry=a

 Vector    3  Occ=1.981498D+00  E=-7.155039D-01  Symmetry=a

 Vector    4  Occ=1.976186D+00  E=-5.749680D-01  Symmetry=a

 Vector    5  Occ=1.971126D+00  E=-5.211768D-01  Symmetry=a

 Vector    6  Occ=2.980539D-02  E=-2.938800D-02  Symmetry=a

 Vector    7  Occ=2.453015D-02  E=-2.566410D-02  Symmetry=a

 Vector    8  Occ=1.809388D-02  E=-1.594738D-02  Symmetry=a

 Vector    9  Occ=0.000000D+00  E= 3.024437D-01  Symmetry=a

 Vector   10  Occ=0.000000D+00  E= 3.353292D-01  Symmetry=a

 Vector   11  Occ=0.000000D+00  E= 6.119196D-01  Symmetry=a

 Vector   12  Occ=0.000000D+00  E= 6.725302D-01  Symmetry=a

 Vector   13  Occ=0.000000D+00  E= 8.137970D-01  Symmetry=a

 Vector   14  Occ=0.000000D+00  E= 8.348351D-01  Symmetry=a

 Vector   15  Occ=0.000000D+00  E= 9.727635D-01  Symmetry=a

 Vector   16  Occ=0.000000D+00  E= 1.140245D+00  Symmetry=a

 Vector   17  Occ=0.000000D+00  E= 1.169277D+00  Symmetry=a

 Vector   18  Occ=0.000000D+00  E= 1.305479D+00  Symmetry=a

         Total SCF energy =    -76.041967086988

 Vector    2  Occ=2.000000D+00  E=-1.324278D+00

 Vector    3  Occ=2.000000D+00  E=-7.155039D-01

 Vector    4  Occ=2.000000D+00  E=-5.749680D-01

 Vector    5  Occ=2.000000D+00  E=-5.211768D-01

 Vector    6  Occ=0.000000D+00  E=-2.938800D-02

 Vector    7  Occ=0.000000D+00  E=-2.566410D-02

 Vector    8  Occ=0.000000D+00  E=-1.594738D-02

 Vector    9  Occ=0.000000D+00  E= 3.024437D-01

 Vector   10  Occ=0.000000D+00  E= 3.353292D-01

 Vector   11  Occ=0.000000D+00  E= 6.119196D-01

 Vector   12  Occ=0.000000D+00  E= 6.725302D-01

 Vector   13  Occ=0.000000D+00  E= 8.137970D-01

 Vector   14  Occ=0.000000D+00  E= 8.348351D-01

 Vector   15  Occ=0.000000D+00  E= 9.727635D-01

       Multipole analysis of the density wrt the origin
       ------------------------------------------------

     L   x y z        total         open         nuclear
     -   - - -        -----         ----         -------
     0   0 0 0     -0.000000      0.000000     10.000000

     1   1 0 0      0.580885      0.000000     -0.000000
     1   0 1 0      0.431428      0.000000      0.000000
     1   0 0 1     -0.000004      0.000000      0.000000

     2   2 0 0     -4.169947      0.000000      2.679864
     2   1 1 0     -0.831407      0.000000     -1.352431
     2   1 0 1     -0.000003      0.000000      0.000000
     2   0 2 0     -3.366810      0.000000      4.238588
     2   0 1 1     -0.000001      0.000000      0.000000

 CCSD total energy / hartree       =       -76.327182727143452
 Total times  cpu:       98.2s     wall:      111.6s
