============================== echo of input deck ==============================
 echo
 start H2O
 title "H2O"

 memory total 24 gb

 geometry units bohr
 symmetry c1
        O  0.00000000  0.00000000  0.00000000
        H  0.00000000  2.433354  0.00000000
        H  1.72558000 -0.64860000  0.00000000
 end

 basis spherical
   * library cc-pVTZ
 end

 mcscf
   active  8
   actelec 10
   multiplicity 1
   maxiter 40
   vectors input h2o.mos
   vectors output h2o.mos
 end

 task mcscf

 scf
   vectors input h2o.mos
   vectors output h2o-trash.mos
   noscf
 end

 tce
   2eorb
   2emet 13
   ccsd
 end

# set tce:print_integrals T
# set tce:qorb 8
# set tce:qela 5
# set tce:qelb 5

 set tce:qducc T
 set tce:nactv 3
 set tce:nonhf T
 set tce:ducc_model 3

 set tce:printtol 0.02

 task tce
================================================================================

 Output coordinates in a.u. (scale by  1.000000000 to convert to a.u.)

  No.       Tag          Charge          X              Y              Z
 ---- ---------------- ---------- -------------- -------------- --------------
    1 O                    8.0000    -0.17255800    -0.17847540     0.00000000
    2 H                    1.0000    -0.17255800     2.25487860     0.00000000
    3 H                    1.0000     1.55302200    -0.82707540     0.00000000

 Vector    1  Occ=1.999990D+00  E=-2.056621D+01  Symmetry=a

 Vector    2  Occ=1.998302D+00  E=-1.297194D+00  Symmetry=a

 Vector    3  Occ=1.980324D+00  E=-6.741620D-01  Symmetry=a

 Vector    4  Occ=1.974659D+00  E=-5.510884D-01  Symmetry=a

 Vector    5  Occ=1.944257D+00  E=-5.187104D-01  Symmetry=a

 Vector    6  Occ=5.731467D-02  E=-4.239925D-02  Symmetry=a

 Vector    7  Occ=2.609209D-02  E=-2.601041D-02  Symmetry=a

 Vector    8  Occ=1.906234D-02  E=-1.540246D-02  Symmetry=a

 Vector    9  Occ=0.000000D+00  E= 3.146808D-01  Symmetry=a

 Vector   10  Occ=0.000000D+00  E= 3.378698D-01  Symmetry=a

 Vector   11  Occ=0.000000D+00  E= 6.076777D-01  Symmetry=a

 Vector   12  Occ=0.000000D+00  E= 7.271139D-01  Symmetry=a

 Vector   13  Occ=0.000000D+00  E= 8.114616D-01  Symmetry=a

 Vector   14  Occ=0.000000D+00  E= 8.308853D-01  Symmetry=a

 Vector   15  Occ=0.000000D+00  E= 9.675477D-01  Symmetry=a

 Vector   16  Occ=0.000000D+00  E= 1.078440D+00  Symmetry=a

 Vector   17  Occ=0.000000D+00  E= 1.133895D+00  Symmetry=a

 Vector   18  Occ=0.000000D+00  E= 1.261740D+00  Symmetry=a

         Total SCF energy =    -75.984624894960

 Vector    2  Occ=2.000000D+00  E=-1.297194D+00

 Vector    3  Occ=2.000000D+00  E=-6.741620D-01

 Vector    4  Occ=2.000000D+00  E=-5.510884D-01

 Vector    5  Occ=2.000000D+00  E=-5.187104D-01

 Vector    6  Occ=0.000000D+00  E=-4.239925D-02

 Vector    7  Occ=0.000000D+00  E=-2.601041D-02

 Vector    8  Occ=0.000000D+00  E=-1.540246D-02

 Vector    9  Occ=0.000000D+00  E= 3.146808D-01

 Vector   10  Occ=0.000000D+00  E= 3.378698D-01

 Vector   11  Occ=0.000000D+00  E= 6.076777D-01

 Vector   12  Occ=0.000000D+00  E= 7.271139D-01

 Vector   13  Occ=0.000000D+00  E= 8.114616D-01

 Vector   14  Occ=0.000000D+00  E= 8.308853D-01

 Vector   15  Occ=0.000000D+00  E= 9.675477D-01

       Multipole analysis of the density wrt the origin
       ------------------------------------------------

     L   x y z        total         open         nuclear
     -   - - -        -----         ----         -------
     0   0 0 0     -0.000000      0.000000     10.000000

     1   1 0 0      0.564289      0.000000     -0.000000
     1   0 1 0      0.456916      0.000000      0.000000
     1   0 0 1      0.000000      0.000000      0.000000

     2   2 0 0     -4.320286      0.000000      2.679864
     2   1 1 0     -0.860343      0.000000     -1.427185
     2   1 0 1     -0.000000      0.000000      0.000000
     2   0 2 0     -3.029782      0.000000      6.023359
     2   0 1 1     -0.000000      0.000000      0.000000

 CCSD total energy / hartree       =       -76.278657576415270
 Total times  cpu:       65.4s     wall:       74.3s
