============================== echo of input deck ==============================
 echo
 start H2O
 title "H2O"

 memory total 24 gb

 geometry units bohr
 symmetry c1
        O  0.00000000  0.00000000  0.00000000
        H  0.00000000  2.543961  0.00000000
        H  1.72558000 -0.64860000  0.00000000
 end

 basis spherical
   * library cc-pVTZ
 end

 mcscf
   active  8
   actelec 10
   multiplicity 1
   maxiter 40
   vectors input h2o.mos
   vectors output h2o.mos
 end

 task mcscf

 scf
   vectors input h2o.mos
   vectors output h2o-trash.mos
   noscf
 end

 tce
   2eorb
   2emet 13
   ccsd
 end

# set tce:print_integrals T
# set tce:qorb 8
# set tce:qela 5
# set tce:qelb 5

 set tce:qducc T
 set tce:nactv 3
 set tce:nonhf T
 set tce:ducc_model 3

 set tce:printtol 0.02

 task tce
================================================================================

 Output coordinates in a.u. (scale by  1.000000000 to convert to a.u.)

  No.       Tag          Charge          X              Y              Z
 ---- ---------------- ---------- -------------- -------------- --------------
    1 O                    8.0000    -0.17255800    -0.18953610     0.00000000
    2 H                    1.0000    -0.17255800     2.35442490     0.00000000
    3 H                    1.0000     1.55302200    -0.83813610     0.00000000

 Vector    1  Occ=1.999990D+00  E=-2.057016D+01  Symmetry=a

 Vector    2  Occ=1.998195D+00  E=-1.294115D+00  Symmetry=a

 Vector    3  Occ=1.980261D+00  E=-6.680122D-01  Symmetry=a

 Vector    4  Occ=1.974371D+00  E=-5.433373D-01  Symmetry=a

 Vector    5  Occ=1.933040D+00  E=-5.193859D-01  Symmetry=a

 Vector    6  Occ=6.866897D-02  E=-4.685583D-02  Symmetry=a

 Vector    7  Occ=2.639085D-02  E=-2.607558D-02  Symmetry=a

 Vector    8  Occ=1.908431D-02  E=-1.520023D-02  Symmetry=a

 Vector    9  Occ=0.000000D+00  E= 3.159719D-01  Symmetry=a

 Vector   10  Occ=0.000000D+00  E= 3.398534D-01  Symmetry=a

 Vector   11  Occ=0.000000D+00  E= 6.068634D-01  Symmetry=a

 Vector   12  Occ=0.000000D+00  E= 7.403203D-01  Symmetry=a

 Vector   13  Occ=0.000000D+00  E= 8.057224D-01  Symmetry=a

 Vector   14  Occ=0.000000D+00  E= 8.367551D-01  Symmetry=a

 Vector   15  Occ=0.000000D+00  E= 9.653269D-01  Symmetry=a

 Vector   16  Occ=0.000000D+00  E= 1.063868D+00  Symmetry=a

 Vector   17  Occ=0.000000D+00  E= 1.104890D+00  Symmetry=a

 Vector   18  Occ=0.000000D+00  E= 1.273357D+00  Symmetry=a

         Total SCF energy =    -75.968080661831

 Vector    2  Occ=2.000000D+00  E=-1.294115D+00

 Vector    3  Occ=2.000000D+00  E=-6.680122D-01

 Vector    4  Occ=2.000000D+00  E=-5.433373D-01

 Vector    5  Occ=2.000000D+00  E=-5.193859D-01

 Vector    6  Occ=0.000000D+00  E=-4.685583D-02

 Vector    7  Occ=0.000000D+00  E=-2.607558D-02

 Vector    8  Occ=0.000000D+00  E=-1.520023D-02

 Vector    9  Occ=0.000000D+00  E= 3.159719D-01

 Vector   10  Occ=0.000000D+00  E= 3.398534D-01

 Vector   11  Occ=0.000000D+00  E= 6.068634D-01

 Vector   12  Occ=0.000000D+00  E= 7.403203D-01

 Vector   13  Occ=0.000000D+00  E= 8.057224D-01

 Vector   14  Occ=0.000000D+00  E= 8.367551D-01

 Vector   15  Occ=0.000000D+00  E= 9.653269D-01

       Multipole analysis of the density wrt the origin
       ------------------------------------------------

     L   x y z        total         open         nuclear
     -   - - -        -----         ----         -------
     0   0 0 0     -0.000000      0.000000     10.000000

     1   1 0 0      0.561692      0.000000     -0.000000
     1   0 1 0      0.450610      0.000000     -0.000000
     1   0 0 1      0.000000      0.000000      0.000000

     2   2 0 0     -4.351672      0.000000      2.679864
     2   1 1 0     -0.863233      0.000000     -1.446271
     2   1 0 1     -0.000000      0.000000      0.000000
     2   0 2 0     -2.962017      0.000000      6.533180
     2   0 1 1     -0.000000      0.000000      0.000000

 CCSD total energy / hartree       =       -76.264844072570199
 Total times  cpu:       66.1s     wall:       74.8s
