============================== echo of input deck ==============================
 echo
 start H2O
 title "H2O"

 memory total 24 gb

 geometry units bohr
 symmetry c1
        O  0.00000000  0.00000000  0.00000000
        H  0.00000000  2.5992645  0.00000000
        H  1.72558000 -0.64860000  0.00000000
 end

 basis spherical
   * library cc-pVTZ
 end

 mcscf
   active  8
   actelec 10
   multiplicity 1
   maxiter 40
   vectors input h2o.mos
   vectors output h2o.mos
 end

 task mcscf

 scf
   vectors input h2o.mos
   vectors output h2o-trash.mos
   noscf
 end

 tce
   2eorb
   2emet 13
   ccsd
 end

# set tce:print_integrals T
# set tce:qorb 8
# set tce:qela 5
# set tce:qelb 5

 set tce:qducc T
 set tce:nactv 3
 set tce:nonhf T
 set tce:ducc_model 3

 set tce:printtol 0.02

 task tce
================================================================================

 Output coordinates in a.u. (scale by  1.000000000 to convert to a.u.)

  No.       Tag          Charge          X              Y              Z
 ---- ---------------- ---------- -------------- -------------- --------------
    1 O                    8.0000    -0.17255800    -0.19506645     0.00000000
    2 H                    1.0000    -0.17255800     2.40419805     0.00000000
    3 H                    1.0000     1.55302200    -0.84366645     0.00000000

 Vector    1  Occ=1.999990D+00  E=-2.057220D+01  Symmetry=a

 Vector    2  Occ=1.998148D+00  E=-1.293019D+00  Symmetry=a

 Vector    3  Occ=1.980272D+00  E=-6.655918D-01  Symmetry=a

 Vector    4  Occ=1.974247D+00  E=-5.392401D-01  Symmetry=a

 Vector    5  Occ=1.926465D+00  E=-5.199038D-01  Symmetry=a

 Vector    6  Occ=7.530019D-02  E=-4.924849D-02  Symmetry=a

 Vector    7  Occ=2.652044D-02  E=-2.610275D-02  Symmetry=a

 Vector    8  Occ=1.905744D-02  E=-1.510033D-02  Symmetry=a

 Vector    9  Occ=0.000000D+00  E= 3.163103D-01  Symmetry=a

 Vector   10  Occ=0.000000D+00  E= 3.410379D-01  Symmetry=a

 Vector   11  Occ=0.000000D+00  E= 6.064481D-01  Symmetry=a

 Vector   12  Occ=0.000000D+00  E= 7.462375D-01  Symmetry=a

 Vector   13  Occ=0.000000D+00  E= 8.029003D-01  Symmetry=a

 Vector   14  Occ=0.000000D+00  E= 8.397959D-01  Symmetry=a

 Vector   15  Occ=0.000000D+00  E= 9.640776D-01  Symmetry=a

 Vector   16  Occ=0.000000D+00  E= 1.056780D+00  Symmetry=a

 Vector   17  Occ=0.000000D+00  E= 1.090447D+00  Symmetry=a

 Vector   18  Occ=0.000000D+00  E= 1.278846D+00  Symmetry=a

         Total SCF energy =    -75.959805444727

 Vector    2  Occ=2.000000D+00  E=-1.293019D+00

 Vector    3  Occ=2.000000D+00  E=-6.655918D-01

 Vector    4  Occ=2.000000D+00  E=-5.392401D-01

 Vector    5  Occ=2.000000D+00  E=-5.199038D-01

 Vector    6  Occ=0.000000D+00  E=-4.924849D-02

 Vector    7  Occ=0.000000D+00  E=-2.610275D-02

 Vector    8  Occ=0.000000D+00  E=-1.510033D-02

 Vector    9  Occ=0.000000D+00  E= 3.163103D-01

 Vector   10  Occ=0.000000D+00  E= 3.410379D-01

 Vector   11  Occ=0.000000D+00  E= 6.064481D-01

 Vector   12  Occ=0.000000D+00  E= 7.462375D-01

 Vector   13  Occ=0.000000D+00  E= 8.029003D-01

 Vector   14  Occ=0.000000D+00  E= 8.397959D-01

 Vector   15  Occ=0.000000D+00  E= 9.640776D-01

       Multipole analysis of the density wrt the origin
       ------------------------------------------------

     L   x y z        total         open         nuclear
     -   - - -        -----         ----         -------
     0   0 0 0     -0.000000      0.000000     10.000000

     1   1 0 0      0.560645      0.000000     -0.000000
     1   0 1 0      0.445170      0.000000      0.000000
     1   0 0 1      0.000000      0.000000      0.000000

     2   2 0 0     -4.366227      0.000000      2.679864
     2   1 1 0     -0.863795      0.000000     -1.455814
     2   1 0 1     -0.000000      0.000000      0.000000
     2   0 2 0     -2.933044      0.000000      6.796349
     2   0 1 1     -0.000000      0.000000      0.000000

 CCSD total energy / hartree       =       -76.258032155960734
 Total times  cpu:       68.6s     wall:       79.7s
