============================== echo of input deck ==============================

echo
start H6
title "H6"

memory total 80 gb

geometry units bohr
symmetry c1
H 0 0 0
H 0 0 1.82
H 0 0 3.64
H 0 0 5.46
H 0 0 7.28
H 0 0 9.10
end

basis spherical
  * library cc-pVTZ
end

scf
thresh 1e-8
end

tce
  2eorb
  2emet 13
  ccsd
  thresh 1e-8
  maxiter 300
end

# set tce:print_integrals T
# set tce:qorb 6
# set tce:qela 3
# set tce:qelb 3

set tce:qducc T
set tce:nactv 3
set tce:nonhf T
set tce:ducc_model 6

set tce:printtol 0.02

task tce
================================================================================

 Output coordinates in a.u. (scale by  1.000000000 to convert to a.u.)

  No.       Tag          Charge          X              Y              Z
 ---- ---------------- ---------- -------------- -------------- --------------
    1 H                    1.0000     0.00000000     0.00000000    -4.55000000
    2 H                    1.0000     0.00000000     0.00000000    -2.73000000
    3 H                    1.0000     0.00000000     0.00000000    -0.91000000
    4 H                    1.0000     0.00000000     0.00000000     0.91000000
    5 H                    1.0000     0.00000000     0.00000000     2.73000000
    6 H                    1.0000     0.00000000     0.00000000     4.55000000

         Total SCF energy =     -3.248715005514

 Vector    1  Occ=2.000000D+00  E=-7.208978D-01

 Vector    2  Occ=2.000000D+00  E=-5.880495D-01

 Vector    3  Occ=2.000000D+00  E=-3.893724D-01

 Vector    4  Occ=0.000000D+00  E= 6.813603D-02

 Vector    5  Occ=0.000000D+00  E= 2.206082D-01

 Vector    6  Occ=0.000000D+00  E= 3.144519D-01

 Vector    7  Occ=0.000000D+00  E= 3.219303D-01

 Vector    8  Occ=0.000000D+00  E= 3.979487D-01

 Vector    9  Occ=0.000000D+00  E= 5.240899D-01

 Vector   10  Occ=0.000000D+00  E= 5.545588D-01

 Vector   11  Occ=0.000000D+00  E= 5.545588D-01

 Vector   12  Occ=0.000000D+00  E= 6.247554D-01

 Vector   13  Occ=0.000000D+00  E= 6.441066D-01

       Multipole analysis of the density wrt the origin
       ------------------------------------------------

     L   x y z        total         open         nuclear
     -   - - -        -----         ----         -------
     0   0 0 0     -0.000000      0.000000      6.000000

     1   1 0 0     -0.000000      0.000000      0.000000
     1   0 1 0     -0.000000      0.000000      0.000000
     1   0 0 1     -0.000000      0.000000      0.000000

     2   2 0 0     -4.963616      0.000000      0.000000
     2   1 1 0      0.000000      0.000000      0.000000
     2   1 0 1     -0.000000      0.000000      0.000000
     2   0 2 0     -4.963616      0.000000      0.000000
     2   0 1 1      0.000000      0.000000      0.000000

 CCSD total energy / hartree       =        -3.394593394183865
 Total times  cpu:     1844.8s     wall:     1844.8s
