============================== echo of input deck ==============================
 echo
 start H2O
 title "H2O"

 memory total 24 gb

 geometry units bohr
 symmetry c1
        O  0.00000000  0.00000000  0.00000000
        H  0.00000000  1.48397725  0.00000000
        H  1.72558000 -0.64860000  0.00000000
 end

 basis spherical
   * library cc-pVTZ
 end

 mcscf
   active  8
   actelec 10
   multiplicity 1
   maxiter 40
   vectors input h2o.mos
   vectors output h2o.mos
 end

 task mcscf

 scf
   vectors input h2o.mos
   vectors output h2o-trash.mos
   noscf
 end

 tce
   2eorb
   2emet 13
   ccsd
 end

 set tce:print_integrals T
 set tce:qorb 8
 set tce:qela 5
 set tce:qelb 5

# set tce:qducc T
# set tce:nactv 3
# set tce:nonhf T
# set tce:ducc_model 3

 set tce:printtol 0.02

 task tce
================================================================================

 Output coordinates in a.u. (scale by  1.000000000 to convert to a.u.)

  No.       Tag          Charge          X              Y              Z
 ---- ---------------- ---------- -------------- -------------- --------------
    1 O                    8.0000    -0.17255800    -0.08353773     0.00000000
    2 H                    1.0000    -0.17255800     1.40043953     0.00000000
    3 H                    1.0000     1.55302200    -0.73213773     0.00000000

 Vector    1  Occ=1.999987D+00  E=-2.052697D+01  Symmetry=a

 Vector    2  Occ=1.999202D+00  E=-1.404136D+00  Symmetry=a

 Vector    3  Occ=1.985445D+00  E=-7.913844D-01  Symmetry=a

 Vector    4  Occ=1.983908D+00  E=-5.965660D-01  Symmetry=a

 Vector    5  Occ=1.978065D+00  E=-5.335440D-01  Symmetry=a

 Vector    6  Occ=2.261678D-02  E=-2.564705D-02  Symmetry=a

 Vector    7  Occ=1.590194D-02  E=-1.844366D-02  Symmetry=a

 Vector    8  Occ=1.487443D-02  E=-1.592790D-02  Symmetry=a

 Vector    9  Occ=0.000000D+00  E= 2.654738D-01  Symmetry=a

 Vector   10  Occ=0.000000D+00  E= 3.330278D-01  Symmetry=a

 Vector   11  Occ=0.000000D+00  E= 6.283709D-01  Symmetry=a

 Vector   12  Occ=0.000000D+00  E= 6.559528D-01  Symmetry=a

 Vector   13  Occ=0.000000D+00  E= 8.104285D-01  Symmetry=a

 Vector   14  Occ=0.000000D+00  E= 8.611009D-01  Symmetry=a

 Vector   15  Occ=0.000000D+00  E= 9.738755D-01  Symmetry=a

 Vector   16  Occ=0.000000D+00  E= 1.055020D+00  Symmetry=a

 Vector   17  Occ=0.000000D+00  E= 1.223320D+00  Symmetry=a

 Vector   18  Occ=0.000000D+00  E= 1.364587D+00  Symmetry=a

         Total SCF energy =    -76.015975258348

 Vector    2  Occ=2.000000D+00  E=-1.404136D+00

 Vector    3  Occ=2.000000D+00  E=-7.913844D-01

 Vector    4  Occ=2.000000D+00  E=-5.965660D-01

 Vector    5  Occ=2.000000D+00  E=-5.335440D-01

 Vector    6  Occ=0.000000D+00  E=-2.564705D-02

 Vector    7  Occ=0.000000D+00  E=-1.844366D-02

 Vector    8  Occ=0.000000D+00  E=-1.592790D-02

 Vector    9  Occ=0.000000D+00  E= 2.654738D-01

 Vector   10  Occ=0.000000D+00  E= 3.330278D-01

 Vector   11  Occ=0.000000D+00  E= 6.283709D-01

 Vector   12  Occ=0.000000D+00  E= 6.559528D-01

 Vector   13  Occ=0.000000D+00  E= 8.104285D-01

 Vector   14  Occ=0.000000D+00  E= 8.611009D-01

 Vector   15  Occ=0.000000D+00  E= 9.738755D-01

       Multipole analysis of the density wrt the origin
       ------------------------------------------------

     L   x y z        total         open         nuclear
     -   - - -        -----         ----         -------
     0   0 0 0     -0.000000      0.000000     10.000000

     1   1 0 0      0.613380      0.000000     -0.000000
     1   0 1 0      0.343425      0.000000      0.000000
     1   0 0 1      0.000002      0.000000      0.000000

     2   2 0 0     -3.944105      0.000000      2.679864
     2   1 1 0     -0.779935      0.000000     -1.263362
     2   1 0 1     -0.000000      0.000000      0.000000
     2   0 2 0     -3.735683      0.000000      2.553085
     2   0 1 1      0.000000      0.000000      0.000000

 CCSD total energy / hartree       =       -76.102102671623896
 Total times  cpu:      137.9s     wall:      194.5s
