============================== echo of input deck ==============================
 echo
 start H2O
 title "H2O"

 memory total 24 gb

 geometry units bohr
 symmetry c1
        O  0.00000000  0.00000000  0.00000000
        H  0.00000000  1.47476  0.00000000
        H  1.72558000 -0.64860000  0.00000000
 end

 basis spherical
   * library cc-pVTZ
 end

 mcscf
   active  8
   actelec 10
   multiplicity 1
   maxiter 40
   vectors input h2o.mos
   vectors output h2o.mos
 end

 task mcscf

 scf
   vectors input h2o.mos
   vectors output h2o-trash.mos
   noscf
 end

 tce
   2eorb
   2emet 13
   ccsd
 end

 set tce:print_integrals T
 set tce:qorb 8
 set tce:qela 5
 set tce:qelb 5

# set tce:qducc T
# set tce:nactv 3
# set tce:nonhf T
# set tce:ducc_model 3

 set tce:printtol 0.02

 task tce
================================================================================

 Output coordinates in a.u. (scale by  1.000000000 to convert to a.u.)

  No.       Tag          Charge          X              Y              Z
 ---- ---------------- ---------- -------------- -------------- --------------
    1 O                    8.0000    -0.17255800    -0.08261600     0.00000000
    2 H                    1.0000    -0.17255800     1.39214400     0.00000000
    3 H                    1.0000     1.55302200    -0.73121600     0.00000000

 Vector    1  Occ=1.999987D+00  E=-2.052641D+01  Symmetry=a

 Vector    2  Occ=1.999209D+00  E=-1.406391D+00  Symmetry=a

 Vector    3  Occ=1.985600D+00  E=-7.928656D-01  Symmetry=a

 Vector    4  Occ=1.983948D+00  E=-5.968484D-01  Symmetry=a

 Vector    5  Occ=1.978088D+00  E=-5.338708D-01  Symmetry=a

 Vector    6  Occ=2.259214D-02  E=-2.562238D-02  Symmetry=a

 Vector    7  Occ=1.586555D-02  E=-1.840512D-02  Symmetry=a

 Vector    8  Occ=1.470920D-02  E=-1.592140D-02  Symmetry=a

 Vector    9  Occ=0.000000D+00  E= 2.667454D-01  Symmetry=a

 Vector   10  Occ=0.000000D+00  E= 3.332365D-01  Symmetry=a

 Vector   11  Occ=0.000000D+00  E= 6.293762D-01  Symmetry=a

 Vector   12  Occ=0.000000D+00  E= 6.555122D-01  Symmetry=a

 Vector   13  Occ=0.000000D+00  E= 8.102168D-01  Symmetry=a

 Vector   14  Occ=0.000000D+00  E= 8.615011D-01  Symmetry=a

 Vector   15  Occ=0.000000D+00  E= 9.738314D-01  Symmetry=a

 Vector   16  Occ=0.000000D+00  E= 1.055317D+00  Symmetry=a

 Vector   17  Occ=0.000000D+00  E= 1.224676D+00  Symmetry=a

 Vector   18  Occ=0.000000D+00  E= 1.364438D+00  Symmetry=a

         Total SCF energy =    -76.012942431032

 Vector    2  Occ=2.000000D+00  E=-1.406391D+00

 Vector    3  Occ=2.000000D+00  E=-7.928656D-01

 Vector    4  Occ=2.000000D+00  E=-5.968484D-01

 Vector    5  Occ=2.000000D+00  E=-5.338708D-01

 Vector    6  Occ=0.000000D+00  E=-2.562238D-02

 Vector    7  Occ=0.000000D+00  E=-1.840512D-02

 Vector    8  Occ=0.000000D+00  E=-1.592140D-02

 Vector    9  Occ=0.000000D+00  E= 2.667454D-01

 Vector   10  Occ=0.000000D+00  E= 3.332365D-01

 Vector   11  Occ=0.000000D+00  E= 6.293762D-01

 Vector   12  Occ=0.000000D+00  E= 6.555122D-01

 Vector   13  Occ=0.000000D+00  E= 8.102168D-01

 Vector   14  Occ=0.000000D+00  E= 8.615011D-01

 Vector   15  Occ=0.000000D+00  E= 9.738314D-01

       Multipole analysis of the density wrt the origin
       ------------------------------------------------

     L   x y z        total         open         nuclear
     -   - - -        -----         ----         -------
     0   0 0 0     -0.000000      0.000000     10.000000

     1   1 0 0      0.614127      0.000000     -0.000000
     1   0 1 0      0.341821      0.000000      0.000000
     1   0 0 1      0.000004      0.000000      0.000000

     2   2 0 0     -3.939744      0.000000      2.679864
     2   1 1 0     -0.779102      0.000000     -1.261772
     2   1 0 1      0.000000      0.000000      0.000000
     2   0 2 0     -3.740721      0.000000      2.527345
     2   0 1 1      0.000000      0.000000      0.000000

 CCSD total energy / hartree       =       -76.098887927884562
 Total times  cpu:       76.9s     wall:      108.9s
