============================== echo of input deck ==============================
 echo
 start H2O
 title "H2O"

 memory total 24 gb

 geometry units bohr
 symmetry c1
        O  0.00000000  0.00000000  0.00000000
        H  0.00000000  1.50241175  0.00000000
        H  1.72558000 -0.64860000  0.00000000
 end

 basis spherical
   * library cc-pVTZ
 end

 mcscf
   active  8
   actelec 10
   multiplicity 1
   maxiter 40
   vectors input h2o.mos
   vectors output h2o.mos
 end

 task mcscf

 scf
   vectors input h2o.mos
   vectors output h2o-trash.mos
   noscf
 end

 tce
   2eorb
   2emet 13
   ccsd
 end

 set tce:print_integrals T
 set tce:qorb 8
 set tce:qela 5
 set tce:qelb 5

# set tce:qducc T
# set tce:nactv 3
# set tce:nonhf T
# set tce:ducc_model 3

 set tce:printtol 0.02

 task tce
================================================================================

 Output coordinates in a.u. (scale by  1.000000000 to convert to a.u.)

  No.       Tag          Charge          X              Y              Z
 ---- ---------------- ---------- -------------- -------------- --------------
    1 O                    8.0000    -0.17255800    -0.08538118     0.00000000
    2 H                    1.0000    -0.17255800     1.41703058     0.00000000
    3 H                    1.0000     1.55302200    -0.73398118     0.00000000

 Vector    1  Occ=1.999987D+00  E=-2.052791D+01  Symmetry=a

 Vector    2  Occ=1.999189D+00  E=-1.400153D+00  Symmetry=a

 Vector    3  Occ=1.985125D+00  E=-7.884174D-01  Symmetry=a

 Vector    4  Occ=1.983825D+00  E=-5.956997D-01  Symmetry=a

 Vector    5  Occ=1.978014D+00  E=-5.329390D-01  Symmetry=a

 Vector    6  Occ=2.266843D-02  E=-2.562192D-02  Symmetry=a

 Vector    7  Occ=1.597670D-02  E=-1.884534D-02  Symmetry=a

 Vector    8  Occ=1.521352D-02  E=-1.593653D-02  Symmetry=a

 Vector    9  Occ=0.000000D+00  E= 2.691287D-01  Symmetry=a

 Vector   10  Occ=0.000000D+00  E= 3.335454D-01  Symmetry=a

 Vector   11  Occ=0.000000D+00  E= 6.259525D-01  Symmetry=a

 Vector   12  Occ=0.000000D+00  E= 6.548654D-01  Symmetry=a

 Vector   13  Occ=0.000000D+00  E= 8.101135D-01  Symmetry=a

 Vector   14  Occ=0.000000D+00  E= 8.602976D-01  Symmetry=a

 Vector   15  Occ=0.000000D+00  E= 9.739276D-01  Symmetry=a

 Vector   16  Occ=0.000000D+00  E= 1.060339D+00  Symmetry=a

 Vector   17  Occ=0.000000D+00  E= 1.220640D+00  Symmetry=a

 Vector   18  Occ=0.000000D+00  E= 1.365768D+00  Symmetry=a

         Total SCF energy =    -76.021596932276

 Vector    2  Occ=2.000000D+00  E=-1.400153D+00

 Vector    3  Occ=2.000000D+00  E=-7.884174D-01

 Vector    4  Occ=2.000000D+00  E=-5.956997D-01

 Vector    5  Occ=2.000000D+00  E=-5.329390D-01

 Vector    6  Occ=0.000000D+00  E=-2.562192D-02

 Vector    7  Occ=0.000000D+00  E=-1.884534D-02

 Vector    8  Occ=0.000000D+00  E=-1.593653D-02

 Vector    9  Occ=0.000000D+00  E= 2.691287D-01

 Vector   10  Occ=0.000000D+00  E= 3.335454D-01

 Vector   11  Occ=0.000000D+00  E= 6.259525D-01

 Vector   12  Occ=0.000000D+00  E= 6.548654D-01

 Vector   13  Occ=0.000000D+00  E= 8.101135D-01

 Vector   14  Occ=0.000000D+00  E= 8.602976D-01

 Vector   15  Occ=0.000000D+00  E= 9.739276D-01

       Multipole analysis of the density wrt the origin
       ------------------------------------------------

     L   x y z        total         open         nuclear
     -   - - -        -----         ----         -------
     0   0 0 0     -0.000000      0.000000     10.000000

     1   1 0 0      0.611945      0.000000     -0.000000
     1   0 1 0      0.346730      0.000000      0.000000
     1   0 0 1      0.000002      0.000000      0.000000

     2   2 0 0     -3.952814      0.000000      2.679864
     2   1 1 0     -0.781660      0.000000     -1.266543
     2   1 0 1      0.000000      0.000000      0.000000
     2   0 2 0     -3.725355      0.000000      2.605024
     2   0 1 1      0.000000      0.000000      0.000000

 CCSD total energy / hartree       =       -76.108094643983137
 Total times  cpu:      138.9s     wall:      197.3s
