============================== echo of input deck ==============================
 echo
 start H2O
 title "H2O"

 memory total 24 gb

 geometry units bohr
 symmetry c1
        O  0.00000000  0.00000000  0.00000000
        H  0.00000000  1.59458425  0.00000000
        H  1.72558000 -0.64860000  0.00000000
 end

 basis spherical
   * library cc-pVTZ
 end

 mcscf
   active  8
   actelec 10
   multiplicity 1
   maxiter 40
   vectors input h2o.mos
   vectors output h2o.mos
 end

 task mcscf

 scf
   vectors input h2o.mos
   vectors output h2o-trash.mos
   noscf
 end

 tce
   2eorb
   2emet 13
   ccsd
 end

 set tce:print_integrals T
 set tce:qorb 8
 set tce:qela 5
 set tce:qelb 5

# set tce:qducc T
# set tce:nactv 3
# set tce:nonhf T
# set tce:ducc_model 3

 set tce:printtol 0.02

 task tce
================================================================================

 Output coordinates in a.u. (scale by  1.000000000 to convert to a.u.)

  No.       Tag          Charge          X              Y              Z
 ---- ---------------- ---------- -------------- -------------- --------------
    1 O                    8.0000    -0.17255800    -0.09459843     0.00000000
    2 H                    1.0000    -0.17255800     1.49998583     0.00000000
    3 H                    1.0000     1.55302200    -0.74319843     0.00000000

 Vector    1  Occ=1.999988D+00  E=-2.053269D+01  Symmetry=a

 Vector    2  Occ=1.999124D+00  E=-1.381275D+00  Symmetry=a

 Vector    3  Occ=1.983388D+00  E=-7.737479D-01  Symmetry=a

 Vector    4  Occ=1.983327D+00  E=-5.918647D-01  Symmetry=a

 Vector    5  Occ=1.977726D+00  E=-5.300874D-01  Symmetry=a

 Vector    6  Occ=2.296488D-02  E=-2.561020D-02  Symmetry=a

 Vector    7  Occ=1.710281D-02  E=-2.055500D-02  Symmetry=a

 Vector    8  Occ=1.637854D-02  E=-1.598184D-02  Symmetry=a

 Vector    9  Occ=0.000000D+00  E= 2.788139D-01  Symmetry=a

 Vector   10  Occ=0.000000D+00  E= 3.346914D-01  Symmetry=a

 Vector   11  Occ=0.000000D+00  E= 6.174595D-01  Symmetry=a

 Vector   12  Occ=0.000000D+00  E= 6.531016D-01  Symmetry=a

 Vector   13  Occ=0.000000D+00  E= 8.096969D-01  Symmetry=a

 Vector   14  Occ=0.000000D+00  E= 8.560477D-01  Symmetry=a

 Vector   15  Occ=0.000000D+00  E= 9.740493D-01  Symmetry=a

 Vector   16  Occ=0.000000D+00  E= 1.079520D+00  Symmetry=a

 Vector   17  Occ=0.000000D+00  E= 1.206596D+00  Symmetry=a

 Vector   18  Occ=0.000000D+00  E= 1.371036D+00  Symmetry=a

         Total SCF energy =    -76.041939705467

 Vector    2  Occ=2.000000D+00  E=-1.381275D+00

 Vector    3  Occ=2.000000D+00  E=-7.737479D-01

 Vector    4  Occ=2.000000D+00  E=-5.918647D-01

 Vector    5  Occ=2.000000D+00  E=-5.300874D-01

 Vector    6  Occ=0.000000D+00  E=-2.561020D-02

 Vector    7  Occ=0.000000D+00  E=-2.055500D-02

 Vector    8  Occ=0.000000D+00  E=-1.598184D-02

 Vector    9  Occ=0.000000D+00  E= 2.788139D-01

 Vector   10  Occ=0.000000D+00  E= 3.346914D-01

 Vector   11  Occ=0.000000D+00  E= 6.174595D-01

 Vector   12  Occ=0.000000D+00  E= 6.531016D-01

 Vector   13  Occ=0.000000D+00  E= 8.096969D-01

 Vector   14  Occ=0.000000D+00  E= 8.560477D-01

 Vector   15  Occ=0.000000D+00  E= 9.740493D-01

       Multipole analysis of the density wrt the origin
       ------------------------------------------------

     L   x y z        total         open         nuclear
     -   - - -        -----         ----         -------
     0   0 0 0     -0.000000      0.000000     10.000000

     1   1 0 0      0.605234      0.000000     -0.000000
     1   0 1 0      0.363686      0.000000      0.000000
     1   0 0 1     -0.000002      0.000000      0.000000

     2   2 0 0     -3.995888      0.000000      2.679864
     2   1 1 0     -0.790921      0.000000     -1.282448
     2   1 0 1     -0.000000      0.000000      0.000000
     2   0 2 0     -3.669871      0.000000      2.873892
     2   0 1 1     -0.000000      0.000000      0.000000

 CCSD total energy / hartree       =       -76.130400657894185
 Total times  cpu:      134.4s     wall:      191.8s
