============================== echo of input deck ==============================
 echo
 start H2O
 title "H2O"

 memory total 24 gb

 geometry units bohr
 symmetry c1
        O  0.00000000  0.00000000  0.00000000
        H  0.00000000  1.61301875  0.00000000
        H  1.72558000 -0.64860000  0.00000000
 end

 basis spherical
   * library cc-pVTZ
 end

 mcscf
   active  8
   actelec 10
   multiplicity 1
   maxiter 40
   vectors input h2o.mos
   vectors output h2o.mos
 end

 task mcscf

 scf
   vectors input h2o.mos
   vectors output h2o-trash.mos
   noscf
 end

 tce
   2eorb
   2emet 13
   ccsd
 end

 set tce:print_integrals T
 set tce:qorb 8
 set tce:qela 5
 set tce:qelb 5

# set tce:qducc T
# set tce:nactv 3
# set tce:nonhf T
# set tce:ducc_model 3

 set tce:printtol 0.02

 task tce
================================================================================

 Output coordinates in a.u. (scale by  1.000000000 to convert to a.u.)

  No.       Tag          Charge          X              Y              Z
 ---- ---------------- ---------- -------------- -------------- --------------
    1 O                    8.0000    -0.17255800    -0.09644188     0.00000000
    2 H                    1.0000    -0.17255800     1.51657688     0.00000000
    3 H                    1.0000     1.55302200    -0.74504188     0.00000000

 Vector    1  Occ=1.999988D+00  E=-2.053361D+01  Symmetry=a

 Vector    2  Occ=1.999111D+00  E=-1.377827D+00  Symmetry=a

 Vector    3  Occ=1.983298D+00  E=-7.708587D-01  Symmetry=a

 Vector    4  Occ=1.982931D+00  E=-5.911206D-01  Symmetry=a

 Vector    5  Occ=1.977662D+00  E=-5.295712D-01  Symmetry=a

 Vector    6  Occ=2.303033D-02  E=-2.561072D-02  Symmetry=a

 Vector    7  Occ=1.751802D-02  E=-2.092781D-02  Symmetry=a

 Vector    8  Occ=1.646162D-02  E=-1.599020D-02  Symmetry=a

 Vector    9  Occ=0.000000D+00  E= 2.807883D-01  Symmetry=a

 Vector   10  Occ=0.000000D+00  E= 3.349244D-01  Symmetry=a

 Vector   11  Occ=0.000000D+00  E= 6.163570D-01  Symmetry=a

 Vector   12  Occ=0.000000D+00  E= 6.529249D-01  Symmetry=a

 Vector   13  Occ=0.000000D+00  E= 8.096482D-01  Symmetry=a

 Vector   14  Occ=0.000000D+00  E= 8.551585D-01  Symmetry=a

 Vector   15  Occ=0.000000D+00  E= 9.740464D-01  Symmetry=a

 Vector   16  Occ=0.000000D+00  E= 1.083480D+00  Symmetry=a

 Vector   17  Occ=0.000000D+00  E= 1.203705D+00  Symmetry=a

 Vector   18  Occ=0.000000D+00  E= 1.372229D+00  Symmetry=a

         Total SCF energy =    -76.044671999074

 Vector    2  Occ=2.000000D+00  E=-1.377827D+00

 Vector    3  Occ=2.000000D+00  E=-7.708587D-01

 Vector    4  Occ=2.000000D+00  E=-5.911206D-01

 Vector    5  Occ=2.000000D+00  E=-5.295712D-01

 Vector    6  Occ=0.000000D+00  E=-2.561072D-02

 Vector    7  Occ=0.000000D+00  E=-2.092781D-02

 Vector    8  Occ=0.000000D+00  E=-1.599020D-02

 Vector    9  Occ=0.000000D+00  E= 2.807883D-01

 Vector   10  Occ=0.000000D+00  E= 3.349244D-01

 Vector   11  Occ=0.000000D+00  E= 6.163570D-01

 Vector   12  Occ=0.000000D+00  E= 6.529249D-01

 Vector   13  Occ=0.000000D+00  E= 8.096482D-01

 Vector   14  Occ=0.000000D+00  E= 8.551585D-01

 Vector   15  Occ=0.000000D+00  E= 9.740464D-01

       Multipole analysis of the density wrt the origin
       ------------------------------------------------

     L   x y z        total         open         nuclear
     -   - - -        -----         ----         -------
     0   0 0 0     -0.000000      0.000000     10.000000

     1   1 0 0      0.603925      0.000000     -0.000000
     1   0 1 0      0.367132      0.000000      0.000000
     1   0 0 1     -0.000000      0.000000      0.000000

     2   2 0 0     -4.004402      0.000000      2.679864
     2   1 1 0     -0.792811      0.000000     -1.285629
     2   1 0 1     -0.000000      0.000000      0.000000
     2   0 2 0     -3.657953      0.000000      2.929501
     2   0 1 1      0.000000      0.000000      0.000000

 CCSD total energy / hartree       =       -76.133542799337221
 Total times  cpu:      136.5s     wall:      193.9s
