============================== echo of input deck ==============================
 echo
 start H2O
 title "H2O"

 memory total 24 gb

 geometry units bohr
 symmetry c1
        O  0.00000000  0.00000000  0.00000000
        H  0.00000000  1.84345  0.00000000
        H  1.72558000 -0.64860000  0.00000000
 end

 basis spherical
   * library cc-pVTZ
 end

 mcscf
   active  8
   actelec 10
   multiplicity 1
   maxiter 40
   vectors input h2o.mos
   vectors output h2o.mos
 end

 task mcscf

 scf
   vectors input h2o.mos
   vectors output h2o-trash.mos
   noscf
 end

 tce
   2eorb
   2emet 13
   ccsd
   maxiter 300
 end

 set tce:print_integrals T
 set tce:qorb 8
 set tce:qela 5
 set tce:qelb 5

# set tce:qducc T
# set tce:nactv 3
# set tce:nonhf T
# set tce:ducc_model 6

 set tce:printtol 0.02

 task tce
================================================================================

 Output coordinates in a.u. (scale by  1.000000000 to convert to a.u.)

  No.       Tag          Charge          X              Y              Z
 ---- ---------------- ---------- -------------- -------------- --------------
    1 O                    8.0000    -0.17255800    -0.11948500     0.00000000
    2 H                    1.0000    -0.17255800     1.72396500     0.00000000
    3 H                    1.0000     1.55302200    -0.76808500     0.00000000

 Vector    1  Occ=1.999988D+00  E=-2.054432D+01  Symmetry=a

 Vector    2  Occ=1.998923D+00  E=-1.341851D+00  Symmetry=a

 Vector    3  Occ=1.982183D+00  E=-7.363881D-01  Symmetry=a

 Vector    4  Occ=1.976965D+00  E=-5.818116D-01  Symmetry=a

 Vector    5  Occ=1.976632D+00  E=-5.239627D-01  Symmetry=a

 Vector    6  Occ=2.413932D-02  E=-2.620670D-02  Symmetry=a

 Vector    7  Occ=2.368652D-02  E=-2.514346D-02  Symmetry=a

 Vector    8  Occ=1.748222D-02  E=-1.601672D-02  Symmetry=a

 Vector    9  Occ=0.000000D+00  E= 2.956748D-01  Symmetry=a

 Vector   10  Occ=0.000000D+00  E= 3.355025D-01  Symmetry=a

 Vector   11  Occ=0.000000D+00  E= 6.120737D-01  Symmetry=a

 Vector   12  Occ=0.000000D+00  E= 6.590722D-01  Symmetry=a

 Vector   13  Occ=0.000000D+00  E= 8.109200D-01  Symmetry=a

 Vector   14  Occ=0.000000D+00  E= 8.433034D-01  Symmetry=a

 Vector   15  Occ=0.000000D+00  E= 9.735457D-01  Symmetry=a

 Vector   16  Occ=0.000000D+00  E= 1.132704D+00  Symmetry=a

 Vector   17  Occ=0.000000D+00  E= 1.167735D+00  Symmetry=a

 Vector   18  Occ=0.000000D+00  E= 1.372567D+00  Symmetry=a

         Total SCF energy =    -76.053210297010

 Vector    2  Occ=2.000000D+00  E=-1.341851D+00

 Vector    3  Occ=2.000000D+00  E=-7.363881D-01

 Vector    4  Occ=2.000000D+00  E=-5.818116D-01

 Vector    5  Occ=2.000000D+00  E=-5.239627D-01

 Vector    6  Occ=0.000000D+00  E=-2.620670D-02

 Vector    7  Occ=0.000000D+00  E=-2.514346D-02

 Vector    8  Occ=0.000000D+00  E=-1.601672D-02

 Vector    9  Occ=0.000000D+00  E= 2.956748D-01

 Vector   10  Occ=0.000000D+00  E= 3.355025D-01

 Vector   11  Occ=0.000000D+00  E= 6.120737D-01

 Vector   12  Occ=0.000000D+00  E= 6.590722D-01

 Vector   13  Occ=0.000000D+00  E= 8.109200D-01

 Vector   14  Occ=0.000000D+00  E= 8.433034D-01

 Vector   15  Occ=0.000000D+00  E= 9.735457D-01

       Multipole analysis of the density wrt the origin
       ------------------------------------------------

     L   x y z        total         open         nuclear
     -   - - -        -----         ----         -------
     0   0 0 0     -0.000000      0.000000     10.000000

     1   1 0 0      0.589262      0.000000     -0.000000
     1   0 1 0      0.408037      0.000000      0.000000
     1   0 0 1      0.000022      0.000000      0.000000

     2   2 0 0     -4.106092      0.000000      2.679864
     2   1 1 0     -0.816441      0.000000     -1.325392
     2   1 0 1      0.000007      0.000000      0.000000
     2   0 2 0     -3.492321      0.000000      3.676223
     2   0 1 1      0.000004      0.000000      0.000000

 CCSD total energy / hartree       =       -76.147530619710864
 Total times  cpu:       52.6s     wall:       75.2s
