============================== echo of input deck ==============================
 echo
 start H2O
 title "H2O"

 memory total 24 gb

 geometry units bohr
 symmetry c1
        O  0.00000000  0.00000000  0.00000000
        H  0.00000000  1.92640525  0.00000000
        H  1.72558000 -0.64860000  0.00000000
 end

 basis spherical
   * library cc-pVTZ
 end

 mcscf
   active  8
   actelec 10
   multiplicity 1
   maxiter 40
   vectors input h2o.mos
   vectors output h2o.mos
 end

 task mcscf

 scf
   vectors input h2o.mos
   vectors output h2o-trash.mos
   noscf
 end

 tce
   2eorb
   2emet 13
   ccsd
 end

 set tce:print_integrals T
 set tce:qorb 8
 set tce:qela 5
 set tce:qelb 5

# set tce:qducc T
# set tce:nactv 3
# set tce:nonhf T
# set tce:ducc_model 3

 set tce:printtol 0.02

 task tce
================================================================================

 Output coordinates in a.u. (scale by  1.000000000 to convert to a.u.)

  No.       Tag          Charge          X              Y              Z
 ---- ---------------- ---------- -------------- -------------- --------------
    1 O                    8.0000    -0.17255800    -0.12778053     0.00000000
    2 H                    1.0000    -0.17255800     1.79862473     0.00000000
    3 H                    1.0000     1.55302200    -0.77638053     0.00000000

 Vector    1  Occ=1.999989D+00  E=-2.054777D+01  Symmetry=a

 Vector    2  Occ=1.998846D+00  E=-1.331871D+00  Symmetry=a

 Vector    3  Occ=1.981809D+00  E=-7.249830D-01  Symmetry=a

 Vector    4  Occ=1.976484D+00  E=-5.782304D-01  Symmetry=a

 Vector    5  Occ=1.973967D+00  E=-5.223229D-01  Symmetry=a

 Vector    6  Occ=2.686575D-02  E=-2.766892D-02  Symmetry=a

 Vector    7  Occ=2.422264D-02  E=-2.555156D-02  Symmetry=a

 Vector    8  Occ=1.781806D-02  E=-1.598923D-02  Symmetry=a

 Vector    9  Occ=0.000000D+00  E= 2.991082D-01  Symmetry=a

 Vector   10  Occ=0.000000D+00  E= 3.352523D-01  Symmetry=a

 Vector   11  Occ=0.000000D+00  E= 6.120838D-01  Symmetry=a

 Vector   12  Occ=0.000000D+00  E= 6.651437D-01  Symmetry=a

 Vector   13  Occ=0.000000D+00  E= 8.122008D-01  Symmetry=a

 Vector   14  Occ=0.000000D+00  E= 8.388459D-01  Symmetry=a

 Vector   15  Occ=0.000000D+00  E= 9.731949D-01  Symmetry=a

 Vector   16  Occ=0.000000D+00  E= 1.146440D+00  Symmetry=a

 Vector   17  Occ=0.000000D+00  E= 1.159499D+00  Symmetry=a

 Vector   18  Occ=0.000000D+00  E= 1.336900D+00  Symmetry=a

         Total SCF energy =    -76.048387747469

 Vector    2  Occ=2.000000D+00  E=-1.331871D+00

 Vector    3  Occ=2.000000D+00  E=-7.249830D-01

 Vector    4  Occ=2.000000D+00  E=-5.782304D-01

 Vector    5  Occ=2.000000D+00  E=-5.223229D-01

 Vector    6  Occ=0.000000D+00  E=-2.766892D-02

 Vector    7  Occ=0.000000D+00  E=-2.555156D-02

 Vector    8  Occ=0.000000D+00  E=-1.598923D-02

 Vector    9  Occ=0.000000D+00  E= 2.991082D-01

 Vector   10  Occ=0.000000D+00  E= 3.352523D-01

 Vector   11  Occ=0.000000D+00  E= 6.120838D-01

 Vector   12  Occ=0.000000D+00  E= 6.651437D-01

 Vector   13  Occ=0.000000D+00  E= 8.122008D-01

 Vector   14  Occ=0.000000D+00  E= 8.388459D-01

 Vector   15  Occ=0.000000D+00  E= 9.731949D-01

       Multipole analysis of the density wrt the origin
       ------------------------------------------------

     L   x y z        total         open         nuclear
     -   - - -        -----         ----         -------
     0   0 0 0     -0.000000      0.000000     10.000000

     1   1 0 0      0.584702      0.000000     -0.000000
     1   0 1 0      0.421067      0.000000      0.000000
     1   0 0 1     -0.000005      0.000000      0.000000

     2   2 0 0     -4.140438      0.000000      2.679864
     2   1 1 0     -0.824541      0.000000     -1.339707
     2   1 0 1     -0.000004      0.000000      0.000000
     2   0 2 0     -3.426678      0.000000      3.968441
     2   0 1 1     -0.000002      0.000000      0.000000

 CCSD total energy / hartree       =       -76.144779794942309
 Total times  cpu:      135.3s     wall:      191.5s
