============================== echo of input deck ==============================
 echo
 start H2O
 title "H2O"

 memory total 24 gb

 geometry units bohr
 symmetry c1
        O  0.00000000  0.00000000  0.00000000
        H  0.00000000  2.0093605  0.00000000
        H  1.72558000 -0.64860000  0.00000000
 end

 basis spherical
   * library cc-pVTZ
 end

 mcscf
   active  8
   actelec 10
   multiplicity 1
   maxiter 40
   vectors input h2o.mos
   vectors output h2o.mos
 end

 task mcscf

 scf
   vectors input h2o.mos
   vectors output h2o-trash.mos
   noscf
 end

 tce
   2eorb
   2emet 13
   ccsd
 end

 set tce:print_integrals T
 set tce:qorb 8
 set tce:qela 5
 set tce:qelb 5

# set tce:qducc T
# set tce:nactv 3
# set tce:nonhf T
# set tce:ducc_model 3

 set tce:printtol 0.02

 task tce
================================================================================

 Output coordinates in a.u. (scale by  1.000000000 to convert to a.u.)

  No.       Tag          Charge          X              Y              Z
 ---- ---------------- ---------- -------------- -------------- --------------
    1 O                    8.0000    -0.17255800    -0.13607605     0.00000000
    2 H                    1.0000    -0.17255800     1.87328445     0.00000000
    3 H                    1.0000     1.55302200    -0.78467605     0.00000000

 Vector    1  Occ=1.999989D+00  E=-2.055104D+01  Symmetry=a

 Vector    2  Occ=1.998763D+00  E=-1.323398D+00  Symmetry=a

 Vector    3  Occ=1.981461D+00  E=-7.143609D-01  Symmetry=a

 Vector    4  Occ=1.976149D+00  E=-5.745467D-01  Symmetry=a

 Vector    5  Occ=1.970745D+00  E=-5.210452D-01  Symmetry=a

 Vector    6  Occ=3.019891D-02  E=-2.961144D-02  Symmetry=a

 Vector    7  Occ=2.456773D-02  E=-2.567470D-02  Symmetry=a

 Vector    8  Occ=1.812658D-02  E=-1.594099D-02  Symmetry=a

 Vector    9  Occ=0.000000D+00  E= 3.028151D-01  Symmetry=a

 Vector   10  Occ=0.000000D+00  E= 3.353338D-01  Symmetry=a

 Vector   11  Occ=0.000000D+00  E= 6.118765D-01  Symmetry=a

 Vector   12  Occ=0.000000D+00  E= 6.735373D-01  Symmetry=a

 Vector   13  Occ=0.000000D+00  E= 8.140255D-01  Symmetry=a

 Vector   14  Occ=0.000000D+00  E= 8.343330D-01  Symmetry=a

 Vector   15  Occ=0.000000D+00  E= 9.727026D-01  Symmetry=a

 Vector   16  Occ=0.000000D+00  E= 1.138973D+00  Symmetry=a

 Vector   17  Occ=0.000000D+00  E= 1.170862D+00  Symmetry=a

 Vector   18  Occ=0.000000D+00  E= 1.301769D+00  Symmetry=a

         Total SCF energy =    -76.041050928807

 Vector    2  Occ=2.000000D+00  E=-1.323398D+00

 Vector    3  Occ=2.000000D+00  E=-7.143609D-01

 Vector    4  Occ=2.000000D+00  E=-5.745467D-01

 Vector    5  Occ=2.000000D+00  E=-5.210452D-01

 Vector    6  Occ=0.000000D+00  E=-2.961144D-02

 Vector    7  Occ=0.000000D+00  E=-2.567470D-02

 Vector    8  Occ=0.000000D+00  E=-1.594099D-02

 Vector    9  Occ=0.000000D+00  E= 3.028151D-01

 Vector   10  Occ=0.000000D+00  E= 3.353338D-01

 Vector   11  Occ=0.000000D+00  E= 6.118765D-01

 Vector   12  Occ=0.000000D+00  E= 6.735373D-01

 Vector   13  Occ=0.000000D+00  E= 8.140255D-01

 Vector   14  Occ=0.000000D+00  E= 8.343330D-01

 Vector   15  Occ=0.000000D+00  E= 9.727026D-01

       Multipole analysis of the density wrt the origin
       ------------------------------------------------

     L   x y z        total         open         nuclear
     -   - - -        -----         ----         -------
     0   0 0 0     -0.000000      0.000000     10.000000

     1   1 0 0      0.580430      0.000000     -0.000000
     1   0 1 0      0.432631      0.000000      0.000000
     1   0 0 1     -0.000003      0.000000      0.000000

     2   2 0 0     -4.173560      0.000000      2.679864
     2   1 1 0     -0.832237      0.000000     -1.354021
     2   1 0 1     -0.000002      0.000000      0.000000
     2   0 2 0     -3.359264      0.000000      4.273045
     2   0 1 1     -0.000001      0.000000      0.000000

 CCSD total energy / hartree       =       -76.139564078727773
 Total times  cpu:      133.5s     wall:      186.4s
