============================== echo of input deck ==============================
 echo
 start H2O
 title "H2O"

 memory total 24 gb

 geometry units bohr
 symmetry c1
        O  0.00000000  0.00000000  0.00000000
        H  0.00000000  2.20292275  0.00000000
        H  1.72558000 -0.64860000  0.00000000
 end

 basis spherical
   * library cc-pVTZ
 end

 mcscf
   active  8
   actelec 10
   multiplicity 1
   maxiter 40
   vectors input h2o.mos
   vectors output h2o.mos
 end

 task mcscf

 scf
   vectors input h2o.mos
   vectors output h2o-trash.mos
   noscf
 end

 tce
   2eorb
   2emet 13
   ccsd
 end

 set tce:print_integrals T
 set tce:qorb 8
 set tce:qela 5
 set tce:qelb 5

# set tce:qducc T
# set tce:nactv 3
# set tce:nonhf T
# set tce:ducc_model 3

 set tce:printtol 0.02

 task tce
================================================================================

 Output coordinates in a.u. (scale by  1.000000000 to convert to a.u.)

  No.       Tag          Charge          X              Y              Z
 ---- ---------------- ---------- -------------- -------------- --------------
    1 O                    8.0000    -0.17255800    -0.15543228     0.00000000
    2 H                    1.0000    -0.17255800     2.04749048     0.00000000
    3 H                    1.0000     1.55302200    -0.80403228     0.00000000

 Vector    1  Occ=1.999989D+00  E=-2.055814D+01  Symmetry=a

 Vector    2  Occ=1.998554D+00  E=-1.308249D+00  Symmetry=a

 Vector    3  Occ=1.980788D+00  E=-6.928563D-01  Symmetry=a

 Vector    4  Occ=1.975411D+00  E=-5.649435D-01  Symmetry=a

 Vector    5  Occ=1.961171D+00  E=-5.190611D-01  Symmetry=a

 Vector    6  Occ=4.006126D-02  E=-3.478418D-02  Symmetry=a

 Vector    7  Occ=2.532163D-02  E=-2.585025D-02  Symmetry=a

 Vector    8  Occ=1.870465D-02  E=-1.574996D-02  Symmetry=a

 Vector    9  Occ=0.000000D+00  E= 3.095093D-01  Symmetry=a

 Vector   10  Occ=0.000000D+00  E= 3.357909D-01  Symmetry=a

 Vector   11  Occ=0.000000D+00  E= 6.101642D-01  Symmetry=a

 Vector   12  Occ=0.000000D+00  E= 6.974708D-01  Symmetry=a

 Vector   13  Occ=0.000000D+00  E= 8.203023D-01  Symmetry=a

 Vector   14  Occ=0.000000D+00  E= 8.237878D-01  Symmetry=a

 Vector   15  Occ=0.000000D+00  E= 9.709647D-01  Symmetry=a

 Vector   16  Occ=0.000000D+00  E= 1.110724D+00  Symmetry=a

 Vector   17  Occ=0.000000D+00  E= 1.185945D+00  Symmetry=a

 Vector   18  Occ=0.000000D+00  E= 1.248465D+00  Symmetry=a

         Total SCF energy =    -76.017758021111

 Vector    2  Occ=2.000000D+00  E=-1.308249D+00

 Vector    3  Occ=2.000000D+00  E=-6.928563D-01

 Vector    4  Occ=2.000000D+00  E=-5.649435D-01

 Vector    5  Occ=2.000000D+00  E=-5.190611D-01

 Vector    6  Occ=0.000000D+00  E=-3.478418D-02

 Vector    7  Occ=0.000000D+00  E=-2.585025D-02

 Vector    8  Occ=0.000000D+00  E=-1.574996D-02

 Vector    9  Occ=0.000000D+00  E= 3.095093D-01

 Vector   10  Occ=0.000000D+00  E= 3.357909D-01

 Vector   11  Occ=0.000000D+00  E= 6.101642D-01

 Vector   12  Occ=0.000000D+00  E= 6.974708D-01

 Vector   13  Occ=0.000000D+00  E= 8.203023D-01

 Vector   14  Occ=0.000000D+00  E= 8.237878D-01

 Vector   15  Occ=0.000000D+00  E= 9.709647D-01

       Multipole analysis of the density wrt the origin
       ------------------------------------------------

     L   x y z        total         open         nuclear
     -   - - -        -----         ----         -------
     0   0 0 0     -0.000000      0.000000     10.000000

     1   1 0 0      0.571864      0.000000     -0.000000
     1   0 1 0      0.452059      0.000000      0.000000
     1   0 0 1      0.000000      0.000000      0.000000

     2   2 0 0     -4.245439      0.000000      2.679864
     2   1 1 0     -0.847891      0.000000     -1.387422
     2   1 0 1      0.000000      0.000000      0.000000
     2   0 2 0     -3.201183      0.000000      5.031959
     2   0 1 1      0.000000      0.000000      0.000000

 CCSD total energy / hartree       =       -76.121434316755128
 Total times  cpu:      124.3s     wall:      174.9s
