============================== echo of input deck ==============================
 echo
 start H2O
 title "H2O"

 memory total 24 gb

 geometry units bohr
 symmetry c1
        O  0.00000000  0.00000000  0.00000000
        H  0.00000000  2.249009  0.00000000
        H  1.72558000 -0.64860000  0.00000000
 end

 basis spherical
   * library cc-pVTZ
 end

 mcscf
   active  8
   actelec 10
   multiplicity 1
   maxiter 40
   vectors input h2o.mos
   vectors output h2o.mos
 end

 task mcscf

 scf
   vectors input h2o.mos
   vectors output h2o-trash.mos
   noscf
 end

 tce
   2eorb
   2emet 13
   ccsd
 end

 set tce:print_integrals T
 set tce:qorb 8
 set tce:qela 5
 set tce:qelb 5

# set tce:qducc T
# set tce:nactv 3
# set tce:nonhf T
# set tce:ducc_model 3

 set tce:printtol 0.02

 task tce
================================================================================

 Output coordinates in a.u. (scale by  1.000000000 to convert to a.u.)

  No.       Tag          Charge          X              Y              Z
 ---- ---------------- ---------- -------------- -------------- --------------
    1 O                    8.0000    -0.17255800    -0.16004090     0.00000000
    2 H                    1.0000    -0.17255800     2.08896810     0.00000000
    3 H                    1.0000     1.55302200    -0.80864090     0.00000000

 Vector    1  Occ=1.999989D+00  E=-2.055974D+01  Symmetry=a

 Vector    2  Occ=1.998503D+00  E=-1.305459D+00  Symmetry=a

 Vector    3  Occ=1.980662D+00  E=-6.884736D-01  Symmetry=a

 Vector    4  Occ=1.975247D+00  E=-5.623968D-01  Symmetry=a

 Vector    5  Occ=1.958352D+00  E=-5.187826D-01  Symmetry=a

 Vector    6  Occ=4.295030D-02  E=-3.614128D-02  Symmetry=a

 Vector    7  Occ=2.548923D-02  E=-2.588381D-02  Symmetry=a

 Vector    8  Occ=1.880780D-02  E=-1.569147D-02  Symmetry=a

 Vector    9  Occ=0.000000D+00  E= 3.107074D-01  Symmetry=a

 Vector   10  Occ=0.000000D+00  E= 3.359839D-01  Symmetry=a

 Vector   11  Occ=0.000000D+00  E= 6.096098D-01  Symmetry=a

 Vector   12  Occ=0.000000D+00  E= 7.033770D-01  Symmetry=a

 Vector   13  Occ=0.000000D+00  E= 8.213035D-01  Symmetry=a

 Vector   14  Occ=0.000000D+00  E= 8.221851D-01  Symmetry=a

 Vector   15  Occ=0.000000D+00  E= 9.704162D-01  Symmetry=a

 Vector   16  Occ=0.000000D+00  E= 1.104078D+00  Symmetry=a

 Vector   17  Occ=0.000000D+00  E= 1.179357D+00  Symmetry=a

 Vector   18  Occ=0.000000D+00  E= 1.246746D+00  Symmetry=a

         Total SCF energy =    -76.011418267476

 Vector    2  Occ=2.000000D+00  E=-1.305459D+00

 Vector    3  Occ=2.000000D+00  E=-6.884736D-01

 Vector    4  Occ=2.000000D+00  E=-5.623968D-01

 Vector    5  Occ=2.000000D+00  E=-5.187826D-01

 Vector    6  Occ=0.000000D+00  E=-3.614128D-02

 Vector    7  Occ=0.000000D+00  E=-2.588381D-02

 Vector    8  Occ=0.000000D+00  E=-1.569147D-02

 Vector    9  Occ=0.000000D+00  E= 3.107074D-01

 Vector   10  Occ=0.000000D+00  E= 3.359839D-01

 Vector   11  Occ=0.000000D+00  E= 6.096098D-01

 Vector   12  Occ=0.000000D+00  E= 7.033770D-01

 Vector   13  Occ=0.000000D+00  E= 8.213035D-01

 Vector   14  Occ=0.000000D+00  E= 8.221851D-01

 Vector   15  Occ=0.000000D+00  E= 9.704162D-01

       Multipole analysis of the density wrt the origin
       ------------------------------------------------

     L   x y z        total         open         nuclear
     -   - - -        -----         ----         -------
     0   0 0 0     -0.000000      0.000000     10.000000

     1   1 0 0      0.570136      0.000000     -0.000000
     1   0 1 0      0.454820      0.000000     -0.000000
     1   0 0 1      0.000000      0.000000      0.000000

     2   2 0 0     -4.261401      0.000000      2.679864
     2   1 1 0     -0.850971      0.000000     -1.395375
     2   1 0 1      0.000000      0.000000      0.000000
     2   0 2 0     -3.164600      0.000000      5.222593
     2   0 1 1     -0.000000      0.000000      0.000000

 CCSD total energy / hartree       =       -76.116379351990702
 Total times  cpu:      128.9s     wall:      180.3s
