============================== echo of input deck ==============================
 echo
 start H2O
 title "H2O"

 memory total 24 gb

 geometry units bohr
 symmetry c1
        O  0.00000000  0.00000000  0.00000000
        H  0.00000000  2.322747  0.00000000
        H  1.72558000 -0.64860000  0.00000000
 end

 basis spherical
   * library cc-pVTZ
 end

 mcscf
   active  8
   actelec 10
   multiplicity 1
   maxiter 40
   vectors input h2o.mos
   vectors output h2o.mos
 end

 task mcscf

 scf
   vectors input h2o.mos
   vectors output h2o-trash.mos
   noscf
 end

 tce
   2eorb
   2emet 13
   ccsd
 end

 set tce:print_integrals T
 set tce:qorb 8
 set tce:qela 5
 set tce:qelb 5

# set tce:qducc T
# set tce:nactv 3
# set tce:nonhf T
# set tce:ducc_model 3

 set tce:printtol 0.02

 task tce
================================================================================

 Output coordinates in a.u. (scale by  1.000000000 to convert to a.u.)

  No.       Tag          Charge          X              Y              Z
 ---- ---------------- ---------- -------------- -------------- --------------
    1 O                    8.0000    -0.17255800    -0.16741470     0.00000000
    2 H                    1.0000    -0.17255800     2.15533230     0.00000000
    3 H                    1.0000     1.55302200    -0.81601470     0.00000000

 Vector    1  Occ=1.999990D+00  E=-2.056227D+01  Symmetry=a

 Vector    2  Occ=1.998421D+00  E=-1.301583D+00  Symmetry=a

 Vector    3  Occ=1.980494D+00  E=-6.820974D-01  Symmetry=a

 Vector    4  Occ=1.974998D+00  E=-5.580957D-01  Symmetry=a

 Vector    5  Occ=1.953307D+00  E=-5.185112D-01  Symmetry=a

 Vector    6  Occ=4.810671D-02  E=-3.844193D-02  Symmetry=a

 Vector    7  Occ=2.574354D-02  E=-2.593374D-02  Symmetry=a

 Vector    8  Occ=1.894074D-02  E=-1.558927D-02  Symmetry=a

 Vector    9  Occ=0.000000D+00  E= 3.124301D-01  Symmetry=a

 Vector   10  Occ=0.000000D+00  E= 3.364611D-01  Symmetry=a

 Vector   11  Occ=0.000000D+00  E= 6.087113D-01  Symmetry=a

 Vector   12  Occ=0.000000D+00  E= 7.127388D-01  Symmetry=a

 Vector   13  Occ=0.000000D+00  E= 8.173548D-01  Symmetry=a

 Vector   14  Occ=0.000000D+00  E= 8.254750D-01  Symmetry=a

 Vector   15  Occ=0.000000D+00  E= 9.694124D-01  Symmetry=a

 Vector   16  Occ=0.000000D+00  E= 1.093620D+00  Symmetry=a

 Vector   17  Occ=0.000000D+00  E= 1.162536D+00  Symmetry=a

 Vector   18  Occ=0.000000D+00  E= 1.250695D+00  Symmetry=a

         Total SCF energy =    -76.000910405705

 Vector    2  Occ=2.000000D+00  E=-1.301583D+00

 Vector    3  Occ=2.000000D+00  E=-6.820974D-01

 Vector    4  Occ=2.000000D+00  E=-5.580957D-01

 Vector    5  Occ=2.000000D+00  E=-5.185112D-01

 Vector    6  Occ=0.000000D+00  E=-3.844193D-02

 Vector    7  Occ=0.000000D+00  E=-2.593374D-02

 Vector    8  Occ=0.000000D+00  E=-1.558927D-02

 Vector    9  Occ=0.000000D+00  E= 3.124301D-01

 Vector   10  Occ=0.000000D+00  E= 3.364611D-01

 Vector   11  Occ=0.000000D+00  E= 6.087113D-01

 Vector   12  Occ=0.000000D+00  E= 7.127388D-01

 Vector   13  Occ=0.000000D+00  E= 8.173548D-01

 Vector   14  Occ=0.000000D+00  E= 8.254750D-01

 Vector   15  Occ=0.000000D+00  E= 9.694124D-01

       Multipole analysis of the density wrt the origin
       ------------------------------------------------

     L   x y z        total         open         nuclear
     -   - - -        -----         ----         -------
     0   0 0 0     -0.000000      0.000000     10.000000

     1   1 0 0      0.567594      0.000000     -0.000000
     1   0 1 0      0.457457      0.000000      0.000000
     1   0 0 1      0.000000      0.000000      0.000000

     2   2 0 0     -4.285898      0.000000      2.679864
     2   1 1 0     -0.855351      0.000000     -1.408099
     2   1 0 1     -0.000000      0.000000      0.000000
     2   0 2 0     -3.108061      0.000000      5.535559
     2   0 1 1     -0.000000      0.000000      0.000000

 CCSD total energy / hartree       =       -76.107983342794682
 Total times  cpu:      126.3s     wall:      177.8s
