============================== echo of input deck ==============================
 echo
 start H2O
 title "H2O"

 memory total 24 gb

 geometry units bohr
 symmetry c1
        O  0.00000000  0.00000000  0.00000000
        H  0.00000000  2.5255265  0.00000000
        H  1.72558000 -0.64860000  0.00000000
 end

 basis spherical
   * library cc-pVTZ
 end

 mcscf
   active  8
   actelec 10
   multiplicity 1
   maxiter 40
   vectors input h2o.mos
   vectors output h2o.mos
 end

 task mcscf

 scf
   vectors input h2o.mos
   vectors output h2o-trash.mos
   noscf
 end

 tce
   2eorb
   2emet 13
   ccsd
 end

 set tce:print_integrals T
 set tce:qorb 8
 set tce:qela 5
 set tce:qelb 5

# set tce:qducc T
# set tce:nactv 3
# set tce:nonhf T
# set tce:ducc_model 3

 set tce:printtol 0.02

 task tce
================================================================================

 Output coordinates in a.u. (scale by  1.000000000 to convert to a.u.)

  No.       Tag          Charge          X              Y              Z
 ---- ---------------- ---------- -------------- -------------- --------------
    1 O                    8.0000    -0.17255800    -0.18769265     0.00000000
    2 H                    1.0000    -0.17255800     2.33783385     0.00000000
    3 H                    1.0000     1.55302200    -0.83629265     0.00000000

 Vector    1  Occ=1.999990D+00  E=-2.056950D+01  Symmetry=a

 Vector    2  Occ=1.998211D+00  E=-1.294540D+00  Symmetry=a

 Vector    3  Occ=1.980264D+00  E=-6.689127D-01  Symmetry=a

 Vector    4  Occ=1.974415D+00  E=-5.446808D-01  Symmetry=a

 Vector    5  Occ=1.935080D+00  E=-5.192360D-01  Symmetry=a

 Vector    6  Occ=6.660782D-02  E=-4.607068D-02  Symmetry=a

 Vector    7  Occ=2.634476D-02  E=-2.606537D-02  Symmetry=a

 Vector    8  Occ=1.908767D-02  E=-1.523502D-02  Symmetry=a

 Vector    9  Occ=0.000000D+00  E= 3.158193D-01  Symmetry=a

 Vector   10  Occ=0.000000D+00  E= 3.394734D-01  Symmetry=a

 Vector   11  Occ=0.000000D+00  E= 6.069767D-01  Symmetry=a

 Vector   12  Occ=0.000000D+00  E= 7.381966D-01  Symmetry=a

 Vector   13  Occ=0.000000D+00  E= 8.066674D-01  Symmetry=a

 Vector   14  Occ=0.000000D+00  E= 8.357539D-01  Symmetry=a

 Vector   15  Occ=0.000000D+00  E= 9.657228D-01  Symmetry=a

 Vector   16  Occ=0.000000D+00  E= 1.066252D+00  Symmetry=a

 Vector   17  Occ=0.000000D+00  E= 1.109651D+00  Symmetry=a

 Vector   18  Occ=0.000000D+00  E= 1.271470D+00  Symmetry=a

         Total SCF energy =    -75.970842375281

 Vector    2  Occ=2.000000D+00  E=-1.294540D+00

 Vector    3  Occ=2.000000D+00  E=-6.689127D-01

 Vector    4  Occ=2.000000D+00  E=-5.446808D-01

 Vector    5  Occ=2.000000D+00  E=-5.192360D-01

 Vector    6  Occ=0.000000D+00  E=-4.607068D-02

 Vector    7  Occ=0.000000D+00  E=-2.606537D-02

 Vector    8  Occ=0.000000D+00  E=-1.523502D-02

 Vector    9  Occ=0.000000D+00  E= 3.158193D-01

 Vector   10  Occ=0.000000D+00  E= 3.394734D-01

 Vector   11  Occ=0.000000D+00  E= 6.069767D-01

 Vector   12  Occ=0.000000D+00  E= 7.381966D-01

 Vector   13  Occ=0.000000D+00  E= 8.066674D-01

 Vector   14  Occ=0.000000D+00  E= 8.357539D-01

 Vector   15  Occ=0.000000D+00  E= 9.657228D-01

       Multipole analysis of the density wrt the origin
       ------------------------------------------------

     L   x y z        total         open         nuclear
     -   - - -        -----         ----         -------
     0   0 0 0     -0.000000      0.000000     10.000000

     1   1 0 0      0.562076      0.000000     -0.000000
     1   0 1 0      0.452079      0.000000     -0.000000
     1   0 0 1      0.000000      0.000000      0.000000

     2   2 0 0     -4.346653      0.000000      2.679864
     2   1 1 0     -0.862909      0.000000     -1.443090
     2   1 0 1      0.000000      0.000000      0.000000
     2   0 2 0     -2.972452      0.000000      6.446681
     2   0 1 1     -0.000000      0.000000      0.000000

 CCSD total energy / hartree       =       -76.084204527947179
 Total times  cpu:      126.3s     wall:      178.2s
