============================== echo of input deck ==============================
 echo
 start H2O
 title "H2O"

 memory total 24 gb

 geometry units bohr
 symmetry c1
        O  0.00000000  0.00000000  0.00000000
        H  0.00000000  2.728306  0.00000000
        H  1.72558000 -0.64860000  0.00000000
 end

 basis spherical
   * library cc-pVTZ
 end

 mcscf
   active  8
   actelec 10
   multiplicity 1
   maxiter 40
   vectors input h2o.mos
   vectors output h2o.mos
 end

 task mcscf

 scf
   vectors input h2o.mos
   vectors output h2o-trash.mos
   noscf
 end

 tce
   2eorb
   2emet 13
   ccsd
   maxiter 300
 end

 set tce:print_integrals T
 set tce:qorb 8
 set tce:qela 5
 set tce:qelb 5

# set tce:qducc T
# set tce:nactv 3
# set tce:nonhf T
# set tce:ducc_model 6

 set tce:printtol 0.02

 task tce
================================================================================

 Output coordinates in a.u. (scale by  1.000000000 to convert to a.u.)

  No.       Tag          Charge          X              Y              Z
 ---- ---------------- ---------- -------------- -------------- --------------
    1 O                    8.0000    -0.17255800    -0.20797060     0.00000000
    2 H                    1.0000    -0.17255800     2.52033540     0.00000000
    3 H                    1.0000     1.55302200    -0.85657060     0.00000000

 Vector    1  Occ=1.999990D+00  E=-2.057705D+01  Symmetry=a

 Vector    2  Occ=1.998063D+00  E=-1.291628D+00  Symmetry=a

 Vector    3  Occ=1.980403D+00  E=-6.616141D-01  Symmetry=a

 Vector    4  Occ=1.974019D+00  E=-5.288063D-01  Symmetry=a

 Vector    5  Occ=1.908250D+00  E=-5.217230D-01  Symmetry=a

 Vector    6  Occ=9.360739D-02  E=-5.578577D-02  Symmetry=a

 Vector    7  Occ=2.676471D-02  E=-2.616591D-02  Symmetry=a

 Vector    8  Occ=1.890150D-02  E=-1.483797D-02  Symmetry=a

 Vector    9  Occ=0.000000D+00  E= 3.161700D-01  Symmetry=a

 Vector   10  Occ=0.000000D+00  E= 3.447585D-01  Symmetry=a

 Vector   11  Occ=0.000000D+00  E= 6.062670D-01  Symmetry=a

 Vector   12  Occ=0.000000D+00  E= 7.595679D-01  Symmetry=a

 Vector   13  Occ=0.000000D+00  E= 7.965688D-01  Symmetry=a

 Vector   14  Occ=0.000000D+00  E= 8.469646D-01  Symmetry=a

 Vector   15  Occ=0.000000D+00  E= 9.608147D-01  Symmetry=a

 Vector   16  Occ=0.000000D+00  E= 1.041047D+00  Symmetry=a

 Vector   17  Occ=0.000000D+00  E= 1.059246D+00  Symmetry=a

 Vector   18  Occ=0.000000D+00  E= 1.290387D+00  Symmetry=a

         Total SCF energy =    -75.940669747020

 Vector    2  Occ=2.000000D+00  E=-1.291628D+00

 Vector    3  Occ=2.000000D+00  E=-6.616141D-01

 Vector    4  Occ=2.000000D+00  E=-5.288063D-01

 Vector    5  Occ=2.000000D+00  E=-5.217230D-01

 Vector    6  Occ=0.000000D+00  E=-5.578577D-02

 Vector    7  Occ=0.000000D+00  E=-2.616591D-02

 Vector    8  Occ=0.000000D+00  E=-1.483797D-02

 Vector    9  Occ=0.000000D+00  E= 3.161700D-01

 Vector   10  Occ=0.000000D+00  E= 3.447585D-01

 Vector   11  Occ=0.000000D+00  E= 6.062670D-01

 Vector   12  Occ=0.000000D+00  E= 7.595679D-01

 Vector   13  Occ=0.000000D+00  E= 7.965688D-01

 Vector   14  Occ=0.000000D+00  E= 8.469646D-01

 Vector   15  Occ=0.000000D+00  E= 9.608147D-01

       Multipole analysis of the density wrt the origin
       ------------------------------------------------

     L   x y z        total         open         nuclear
     -   - - -        -----         ----         -------
     0   0 0 0     -0.000000      0.000000     10.000000

     1   1 0 0      0.558917      0.000000     -0.000000
     1   0 1 0      0.426728      0.000000     -0.000000
     1   0 0 1      0.000000      0.000000      0.000000

     2   2 0 0     -4.397184      0.000000      2.679864
     2   1 1 0     -0.862783      0.000000     -1.478081
     2   1 0 1     -0.000000      0.000000      0.000000
     2   0 2 0     -2.879698      0.000000      7.431818
     2   0 1 1     -0.000000      0.000000      0.000000

 CCSD total energy / hartree       =       -76.061317504261609
 Total times  cpu:       53.6s     wall:       81.4s
