============================== echo of input deck ==============================
 echo
 start H2O
 title "H2O"

 memory total 24 gb

 geometry units bohr
 symmetry c1
        O  0.00000000  0.00000000  0.00000000
        H  0.00000000  2.7836095  0.00000000
        H  1.72558000 -0.64860000  0.00000000
 end

 basis spherical
   * library cc-pVTZ
 end

 mcscf
   active  8
   actelec 10
   multiplicity 1
   maxiter 40
   vectors input h2o.mos
   vectors output h2o.mos
 end

 task mcscf

 scf
   vectors input h2o.mos
   vectors output h2o-trash.mos
   noscf
 end

 tce
   2eorb
   2emet 13
   ccsd
   maxiter 300
 end

 set tce:print_integrals T
 set tce:qorb 8
 set tce:qela 5
 set tce:qelb 5

# set tce:qducc T
# set tce:nactv 3
# set tce:nonhf T
# set tce:ducc_model 6

 set tce:printtol 0.02

 task tce
================================================================================

 Output coordinates in a.u. (scale by  1.000000000 to convert to a.u.)

  No.       Tag          Charge          X              Y              Z
 ---- ---------------- ---------- -------------- -------------- --------------
    1 O                    8.0000    -0.17255800    -0.21350095     0.00000000
    2 H                    1.0000    -0.17255800     2.57010855     0.00000000
    3 H                    1.0000     1.55302200    -0.86210095     0.00000000

 Vector    1  Occ=1.999990D+00  E=-2.057909D+01  Symmetry=a

 Vector    2  Occ=1.998039D+00  E=-1.291348D+00  Symmetry=a

 Vector    3  Occ=1.980504D+00  E=-6.604591D-01  Symmetry=a

 Vector    4  Occ=1.973947D+00  E=-5.241485D-01  Symmetry=a

 Vector    5  Occ=1.899055D+00  E=-5.226042D-01  Symmetry=a

 Vector    6  Occ=1.028228D-01  E=-5.876982D-02  Symmetry=a

 Vector    7  Occ=2.684568D-02  E=-2.618542D-02  Symmetry=a

 Vector    8  Occ=1.879659D-02  E=-1.473608D-02  Symmetry=a

 Vector    9  Occ=0.000000D+00  E= 3.158726D-01  Symmetry=a

 Vector   10  Occ=0.000000D+00  E= 3.464156D-01  Symmetry=a

 Vector   11  Occ=0.000000D+00  E= 6.061050D-01  Symmetry=a

 Vector   12  Occ=0.000000D+00  E= 7.641835D-01  Symmetry=a

 Vector   13  Occ=0.000000D+00  E= 7.940506D-01  Symmetry=a

 Vector   14  Occ=0.000000D+00  E= 8.500102D-01  Symmetry=a

 Vector   15  Occ=0.000000D+00  E= 9.593050D-01  Symmetry=a

 Vector   16  Occ=0.000000D+00  E= 1.034546D+00  Symmetry=a

 Vector   17  Occ=0.000000D+00  E= 1.045880D+00  Symmetry=a

 Vector   18  Occ=0.000000D+00  E= 1.294823D+00  Symmetry=a

         Total SCF energy =    -75.932582370340

 Vector    2  Occ=2.000000D+00  E=-1.291348D+00

 Vector    3  Occ=2.000000D+00  E=-6.604591D-01

 Vector    4  Occ=2.000000D+00  E=-5.241485D-01

 Vector    5  Occ=2.000000D+00  E=-5.226042D-01

 Vector    6  Occ=0.000000D+00  E=-5.876982D-02

 Vector    7  Occ=0.000000D+00  E=-2.618542D-02

 Vector    8  Occ=0.000000D+00  E=-1.473608D-02

 Vector    9  Occ=0.000000D+00  E= 3.158726D-01

 Vector   10  Occ=0.000000D+00  E= 3.464156D-01

 Vector   11  Occ=0.000000D+00  E= 6.061050D-01

 Vector   12  Occ=0.000000D+00  E= 7.641835D-01

 Vector   13  Occ=0.000000D+00  E= 7.940506D-01

 Vector   14  Occ=0.000000D+00  E= 8.500102D-01

 Vector   15  Occ=0.000000D+00  E= 9.593050D-01

       Multipole analysis of the density wrt the origin
       ------------------------------------------------

     L   x y z        total         open         nuclear
     -   - - -        -----         ----         -------
     0   0 0 0     -0.000000      0.000000     10.000000

     1   1 0 0      0.558453      0.000000     -0.000000
     1   0 1 0      0.416262      0.000000     -0.000000
     1   0 0 1      0.000000      0.000000      0.000000

     2   2 0 0     -4.409094      0.000000      2.679864
     2   1 1 0     -0.861263      0.000000     -1.487624
     2   1 0 1     -0.000000      0.000000      0.000000
     2   0 2 0     -2.863833      0.000000      7.713337
     2   0 1 1     -0.000000      0.000000      0.000000

 CCSD total energy / hartree       =       -76.055441361970921
 Total times  cpu:       55.9s     wall:       82.3s
