============================== echo of input deck ==============================
 echo
 start H2O
 title "H2O"

 memory total 24 gb

 geometry units bohr
 symmetry c1
        O  0.00000000  0.00000000  0.00000000
        H  0.00000000  2.838913  0.00000000
        H  1.72558000 -0.64860000  0.00000000
 end

 basis spherical
   * library cc-pVTZ
 end

 mcscf
   active  8
   actelec 10
   multiplicity 1
   maxiter 40
   vectors input h2o.mos
   vectors output h2o.mos
 end

 task mcscf

 scf
   vectors input h2o.mos
   vectors output h2o-trash.mos
   noscf
 end

 tce
   2eorb
   2emet 13
   ccsd
   maxiter 300
 end

 set tce:print_integrals T
 set tce:qorb 8
 set tce:qela 5
 set tce:qelb 5

# set tce:qducc T
# set tce:nactv 3
# set tce:nonhf T
# set tce:ducc_model 6

 set tce:printtol 0.02

 task tce
================================================================================

 Output coordinates in a.u. (scale by  1.000000000 to convert to a.u.)

  No.       Tag          Charge          X              Y              Z
 ---- ---------------- ---------- -------------- -------------- --------------
    1 O                    8.0000    -0.17255800    -0.21903130     0.00000000
    2 H                    1.0000    -0.17255800     2.61988170     0.00000000
    3 H                    1.0000     1.55302200    -0.86763130     0.00000000

 Vector    1  Occ=1.999990D+00  E=-2.058123D+01  Symmetry=a

 Vector    2  Occ=1.998021D+00  E=-1.291396D+00  Symmetry=a

 Vector    3  Occ=1.980626D+00  E=-6.597468D-01  Symmetry=a

 Vector    4  Occ=1.973889D+00  E=-5.237162D-01  Symmetry=a

 Vector    5  Occ=1.889011D+00  E=-5.191839D-01  Symmetry=a

 Vector    6  Occ=1.128750D-01  E=-6.215906D-02  Symmetry=a

 Vector    7  Occ=2.691209D-02  E=-2.620782D-02  Symmetry=a

 Vector    8  Occ=1.867389D-02  E=-1.461957D-02  Symmetry=a

 Vector    9  Occ=0.000000D+00  E= 3.152323D-01  Symmetry=a

 Vector   10  Occ=0.000000D+00  E= 3.484368D-01  Symmetry=a

 Vector   11  Occ=0.000000D+00  E= 6.063297D-01  Symmetry=a

 Vector   12  Occ=0.000000D+00  E= 7.689686D-01  Symmetry=a

 Vector   13  Occ=0.000000D+00  E= 7.915356D-01  Symmetry=a

 Vector   14  Occ=0.000000D+00  E= 8.529958D-01  Symmetry=a

 Vector   15  Occ=0.000000D+00  E= 9.577001D-01  Symmetry=a

 Vector   16  Occ=0.000000D+00  E= 1.028197D+00  Symmetry=a

 Vector   17  Occ=0.000000D+00  E= 1.033520D+00  Symmetry=a

 Vector   18  Occ=0.000000D+00  E= 1.298880D+00  Symmetry=a

         Total SCF energy =    -75.924588543870

 Vector    2  Occ=2.000000D+00  E=-1.291396D+00

 Vector    3  Occ=2.000000D+00  E=-6.597468D-01

 Vector    4  Occ=2.000000D+00  E=-5.237162D-01

 Vector    5  Occ=2.000000D+00  E=-5.191839D-01

 Vector    6  Occ=0.000000D+00  E=-6.215906D-02

 Vector    7  Occ=0.000000D+00  E=-2.620782D-02

 Vector    8  Occ=0.000000D+00  E=-1.461957D-02

 Vector    9  Occ=0.000000D+00  E= 3.152323D-01

 Vector   10  Occ=0.000000D+00  E= 3.484368D-01

 Vector   11  Occ=0.000000D+00  E= 6.063297D-01

 Vector   12  Occ=0.000000D+00  E= 7.689686D-01

 Vector   13  Occ=0.000000D+00  E= 7.915356D-01

 Vector   14  Occ=0.000000D+00  E= 8.529958D-01

 Vector   15  Occ=0.000000D+00  E= 9.577001D-01

       Multipole analysis of the density wrt the origin
       ------------------------------------------------

     L   x y z        total         open         nuclear
     -   - - -        -----         ----         -------
     0   0 0 0     -0.000000      0.000000     10.000000

     1   1 0 0      0.558169      0.000000     -0.000000
     1   0 1 0      0.404624      0.000000      0.000000
     1   0 0 1      0.000000      0.000000      0.000000

     2   2 0 0     -4.420330      0.000000      2.679864
     2   1 1 0     -0.859162      0.000000     -1.497167
     2   1 0 1     -0.000000      0.000000      0.000000
     2   0 2 0     -2.851697      0.000000      8.000362
     2   0 1 1     -0.000000      0.000000      0.000000

 CCSD total energy / hartree       =       -76.049760927922748
 Total times  cpu:       61.3s     wall:       91.2s
