============================== echo of input deck ==============================
 echo
 start H2O
 title "H2O"

 memory total 24 gb

 geometry units bohr
 symmetry c1
        O  0.00000000  0.00000000  0.00000000
        H  0.00000000  2.875782  0.00000000
        H  1.72558000 -0.64860000  0.00000000
 end

 basis spherical
   * library cc-pVTZ
 end

 mcscf
   active  8
   actelec 10
   multiplicity 1
   maxiter 40
   vectors input h2o.mos
   vectors output h2o.mos
 end

 task mcscf

 scf
   vectors input h2o.mos
   vectors output h2o-trash.mos
   noscf
 end

 tce
   2eorb
   2emet 13
   ccsd
   maxiter 300
 end

 set tce:print_integrals T
 set tce:qorb 8
 set tce:qela 5
 set tce:qelb 5

# set tce:qducc T
# set tce:nactv 3
# set tce:nonhf T
# set tce:ducc_model 6

 set tce:printtol 0.02

 task tce
================================================================================

 Output coordinates in a.u. (scale by  1.000000000 to convert to a.u.)

  No.       Tag          Charge          X              Y              Z
 ---- ---------------- ---------- -------------- -------------- --------------
    1 O                    8.0000    -0.17255800    -0.22271820     0.00000000
    2 H                    1.0000    -0.17255800     2.65306380     0.00000000
    3 H                    1.0000     1.55302200    -0.87131820     0.00000000

 Vector    1  Occ=1.999990D+00  E=-2.058258D+01  Symmetry=a

 Vector    2  Occ=1.998014D+00  E=-1.291436D+00  Symmetry=a

 Vector    3  Occ=1.980721D+00  E=-6.593469D-01  Symmetry=a

 Vector    4  Occ=1.973859D+00  E=-5.244025D-01  Symmetry=a

 Vector    5  Occ=1.881781D+00  E=-5.159339D-01  Symmetry=a

 Vector    6  Occ=1.201038D-01  E=-6.435817D-02  Symmetry=a

 Vector    7  Occ=2.694887D-02  E=-2.621798D-02  Symmetry=a

 Vector    8  Occ=1.858085D-02  E=-1.455580D-02  Symmetry=a

 Vector    9  Occ=0.000000D+00  E= 3.148934D-01  Symmetry=a

 Vector   10  Occ=0.000000D+00  E= 3.496414D-01  Symmetry=a

 Vector   11  Occ=0.000000D+00  E= 6.062570D-01  Symmetry=a

 Vector   12  Occ=0.000000D+00  E= 7.714963D-01  Symmetry=a

 Vector   13  Occ=0.000000D+00  E= 7.900066D-01  Symmetry=a

 Vector   14  Occ=0.000000D+00  E= 8.549250D-01  Symmetry=a

 Vector   15  Occ=0.000000D+00  E= 9.566108D-01  Symmetry=a

 Vector   16  Occ=0.000000D+00  E= 1.023419D+00  Symmetry=a

 Vector   17  Occ=0.000000D+00  E= 1.025513D+00  Symmetry=a

 Vector   18  Occ=0.000000D+00  E= 1.301456D+00  Symmetry=a

         Total SCF energy =    -75.919310103673

 Vector    2  Occ=2.000000D+00  E=-1.291436D+00

 Vector    3  Occ=2.000000D+00  E=-6.593469D-01

 Vector    4  Occ=2.000000D+00  E=-5.244025D-01

 Vector    5  Occ=2.000000D+00  E=-5.159339D-01

 Vector    6  Occ=0.000000D+00  E=-6.435817D-02

 Vector    7  Occ=0.000000D+00  E=-2.621798D-02

 Vector    8  Occ=0.000000D+00  E=-1.455580D-02

 Vector    9  Occ=0.000000D+00  E= 3.148934D-01

 Vector   10  Occ=0.000000D+00  E= 3.496414D-01

 Vector   11  Occ=0.000000D+00  E= 6.062570D-01

 Vector   12  Occ=0.000000D+00  E= 7.714963D-01

 Vector   13  Occ=0.000000D+00  E= 7.900066D-01

 Vector   14  Occ=0.000000D+00  E= 8.549250D-01

 Vector   15  Occ=0.000000D+00  E= 9.566108D-01

       Multipole analysis of the density wrt the origin
       ------------------------------------------------

     L   x y z        total         open         nuclear
     -   - - -        -----         ----         -------
     0   0 0 0     -0.000000      0.000000     10.000000

     1   1 0 0      0.558062      0.000000     -0.000000
     1   0 1 0      0.396006      0.000000      0.000000
     1   0 0 1      0.000000      0.000000      0.000000

     2   2 0 0     -4.427311      0.000000      2.679864
     2   1 1 0     -0.857378      0.000000     -1.503529
     2   1 0 1     -0.000000      0.000000      0.000000
     2   0 2 0     -2.846294      0.000000      8.194770
     2   0 1 1     -0.000000      0.000000      0.000000

 CCSD total energy / hartree       =       -76.046090012947431
 Total times  cpu:       63.2s     wall:       95.0s
