============================== echo of input deck ==============================
 echo
 start H2O
 title "H2O"

 memory total 24 gb

 geometry units bohr
 symmetry c1
        O  0.00000000  0.00000000  0.00000000
        H  0.00000000  2.8942165  0.00000000
        H  1.72558000 -0.64860000  0.00000000
 end

 basis spherical
   * library cc-pVTZ
 end

 mcscf
   active  8
   actelec 10
   multiplicity 1
   maxiter 40
   vectors input h2o.mos
   vectors output h2o.mos
 end

 task mcscf

 scf
   vectors input h2o.mos
   vectors output h2o-trash.mos
   noscf
 end

 tce
   2eorb
   2emet 13
   ccsd
   maxiter 300
 end

 set tce:print_integrals T
 set tce:qorb 8
 set tce:qela 5
 set tce:qelb 5

# set tce:qducc T
# set tce:nactv 3
# set tce:nonhf T
# set tce:ducc_model 6

 set tce:printtol 0.02

 task tce
================================================================================

 Output coordinates in a.u. (scale by  1.000000000 to convert to a.u.)

  No.       Tag          Charge          X              Y              Z
 ---- ---------------- ---------- -------------- -------------- --------------
    1 O                    8.0000    -0.17255800    -0.22456165     0.00000000
    2 H                    1.0000    -0.17255800     2.66965485     0.00000000
    3 H                    1.0000     1.55302200    -0.87316165     0.00000000

 Vector    1  Occ=1.999990D+00  E=-2.058332D+01  Symmetry=a

 Vector    2  Occ=1.998012D+00  E=-1.291570D+00  Symmetry=a

 Vector    3  Occ=1.980771D+00  E=-6.592780D-01  Symmetry=a

 Vector    4  Occ=1.973846D+00  E=-5.248514D-01  Symmetry=a

 Vector    5  Occ=1.878039D+00  E=-5.141526D-01  Symmetry=a

 Vector    6  Occ=1.238440D-01  E=-6.565132D-02  Symmetry=a

 Vector    7  Occ=2.696505D-02  E=-2.622565D-02  Symmetry=a

 Vector    8  Occ=1.853315D-02  E=-1.451270D-02  Symmetry=a

 Vector    9  Occ=0.000000D+00  E= 3.145276D-01  Symmetry=a

 Vector   10  Occ=0.000000D+00  E= 3.504295D-01  Symmetry=a

 Vector   11  Occ=0.000000D+00  E= 6.064657D-01  Symmetry=a

 Vector   12  Occ=0.000000D+00  E= 7.730547D-01  Symmetry=a

 Vector   13  Occ=0.000000D+00  E= 7.891811D-01  Symmetry=a

 Vector   14  Occ=0.000000D+00  E= 8.558866D-01  Symmetry=a

 Vector   15  Occ=0.000000D+00  E= 9.560437D-01  Symmetry=a

 Vector   16  Occ=0.000000D+00  E= 1.020132D+00  Symmetry=a

 Vector   17  Occ=0.000000D+00  E= 1.022950D+00  Symmetry=a

 Vector   18  Occ=0.000000D+00  E= 1.302649D+00  Symmetry=a

         Total SCF energy =    -75.916691465896

 Vector    2  Occ=2.000000D+00  E=-1.291570D+00

 Vector    3  Occ=2.000000D+00  E=-6.592780D-01

 Vector    4  Occ=2.000000D+00  E=-5.248514D-01

 Vector    5  Occ=2.000000D+00  E=-5.141526D-01

 Vector    6  Occ=0.000000D+00  E=-6.565132D-02

 Vector    7  Occ=0.000000D+00  E=-2.622565D-02

 Vector    8  Occ=0.000000D+00  E=-1.451270D-02

 Vector    9  Occ=0.000000D+00  E= 3.145276D-01

 Vector   10  Occ=0.000000D+00  E= 3.504295D-01

 Vector   11  Occ=0.000000D+00  E= 6.064657D-01

 Vector   12  Occ=0.000000D+00  E= 7.730547D-01

 Vector   13  Occ=0.000000D+00  E= 7.891811D-01

 Vector   14  Occ=0.000000D+00  E= 8.558866D-01

 Vector   15  Occ=0.000000D+00  E= 9.560437D-01

       Multipole analysis of the density wrt the origin
       ------------------------------------------------

     L   x y z        total         open         nuclear
     -   - - -        -----         ----         -------
     0   0 0 0     -0.000000      0.000000     10.000000

     1   1 0 0      0.558042      0.000000     -0.000000
     1   0 1 0      0.391632      0.000000      0.000000
     1   0 0 1      0.000000      0.000000      0.000000

     2   2 0 0     -4.430752      0.000000      2.679864
     2   1 1 0     -0.856417      0.000000     -1.506710
     2   1 0 1     -0.000000      0.000000      0.000000
     2   0 2 0     -2.843952      0.000000      8.292892
     2   0 1 1     -0.000000      0.000000      0.000000

 CCSD total energy / hartree       =       -76.044290560436721
 Total times  cpu:       64.5s     wall:       95.7s
