============================== echo of input deck ==============================
 echo
 start H2O
 title "H2O"

 memory total 24 gb

 geometry units bohr
 symmetry c1
        O  0.00000000  0.00000000  0.00000000
        H  0.00000000  2.912651  0.00000000
        H  1.72558000 -0.64860000  0.00000000
 end

 basis spherical
   * library cc-pVTZ
 end

 mcscf
   active  8
   actelec 10
   multiplicity 1
   maxiter 40
   vectors input h2o.mos
   vectors output h2o.mos
 end

 task mcscf

 scf
   vectors input h2o.mos
   vectors output h2o-trash.mos
   noscf
 end

 tce
   2eorb
   2emet 13
   ccsd
   maxiter 300
 end

 set tce:print_integrals T
 set tce:qorb 8
 set tce:qela 5
 set tce:qelb 5

# set tce:qducc T
# set tce:nactv 3
# set tce:nonhf T
# set tce:ducc_model 6

 set tce:printtol 0.02

 task tce
================================================================================

 Output coordinates in a.u. (scale by  1.000000000 to convert to a.u.)

  No.       Tag          Charge          X              Y              Z
 ---- ---------------- ---------- -------------- -------------- --------------
    1 O                    8.0000    -0.17255800    -0.22640510     0.00000000
    2 H                    1.0000    -0.17255800     2.68624590     0.00000000
    3 H                    1.0000     1.55302200    -0.87500510     0.00000000

 Vector    1  Occ=1.999990D+00  E=-2.058401D+01  Symmetry=a

 Vector    2  Occ=1.998010D+00  E=-1.291664D+00  Symmetry=a

 Vector    3  Occ=1.980823D+00  E=-6.591826D-01  Symmetry=a

 Vector    4  Occ=1.973835D+00  E=-5.252472D-01  Symmetry=a

 Vector    5  Occ=1.874175D+00  E=-5.124478D-01  Symmetry=a

 Vector    6  Occ=1.277036D-01  E=-6.685940D-02  Symmetry=a

 Vector    7  Occ=2.697982D-02  E=-2.623107D-02  Symmetry=a

 Vector    8  Occ=1.848289D-02  E=-1.447772D-02  Symmetry=a

 Vector    9  Occ=0.000000D+00  E= 3.142650D-01  Symmetry=a

 Vector   10  Occ=0.000000D+00  E= 3.511113D-01  Symmetry=a

 Vector   11  Occ=0.000000D+00  E= 6.065213D-01  Symmetry=a

 Vector   12  Occ=0.000000D+00  E= 7.743250D-01  Symmetry=a

 Vector   13  Occ=0.000000D+00  E= 7.884223D-01  Symmetry=a

 Vector   14  Occ=0.000000D+00  E= 8.568236D-01  Symmetry=a

 Vector   15  Occ=0.000000D+00  E= 9.554779D-01  Symmetry=a

 Vector   16  Occ=0.000000D+00  E= 1.016225D+00  Symmetry=a

 Vector   17  Occ=0.000000D+00  E= 1.020733D+00  Symmetry=a

 Vector   18  Occ=0.000000D+00  E= 1.303837D+00  Symmetry=a

         Total SCF energy =    -75.914082576237

 Vector    2  Occ=2.000000D+00  E=-1.291664D+00

 Vector    3  Occ=2.000000D+00  E=-6.591826D-01

 Vector    4  Occ=2.000000D+00  E=-5.252472D-01

 Vector    5  Occ=2.000000D+00  E=-5.124478D-01

 Vector    6  Occ=0.000000D+00  E=-6.685940D-02

 Vector    7  Occ=0.000000D+00  E=-2.623107D-02

 Vector    8  Occ=0.000000D+00  E=-1.447772D-02

 Vector    9  Occ=0.000000D+00  E= 3.142650D-01

 Vector   10  Occ=0.000000D+00  E= 3.511113D-01

 Vector   11  Occ=0.000000D+00  E= 6.065213D-01

 Vector   12  Occ=0.000000D+00  E= 7.743250D-01

 Vector   13  Occ=0.000000D+00  E= 7.884223D-01

 Vector   14  Occ=0.000000D+00  E= 8.568236D-01

 Vector   15  Occ=0.000000D+00  E= 9.554779D-01

       Multipole analysis of the density wrt the origin
       ------------------------------------------------

     L   x y z        total         open         nuclear
     -   - - -        -----         ----         -------
     0   0 0 0     -0.000000      0.000000     10.000000

     1   1 0 0      0.558034      0.000000     -0.000000
     1   0 1 0      0.387045      0.000000      0.000000
     1   0 0 1      0.000000      0.000000      0.000000

     2   2 0 0     -4.434061      0.000000      2.679864
     2   1 1 0     -0.855367      0.000000     -1.509891
     2   1 0 1     -0.000000      0.000000      0.000000
     2   0 2 0     -2.842281      0.000000      8.391625
     2   0 1 1     -0.000000      0.000000      0.000000

 CCSD total energy / hartree       =       -76.042515743926145
 Total times  cpu:       67.8s     wall:      100.8s
