============================== echo of input deck ==============================
 echo
 start H2O
 title "H2O"

 memory total 24 gb

 geometry units bohr
 symmetry c1
        O  0.00000000  0.00000000  0.00000000
        H  0.00000000  3.0416925  0.00000000
        H  1.72558000 -0.64860000  0.00000000
 end

 basis spherical
   * library cc-pVTZ
 end

 mcscf
   active  8
   actelec 10
   multiplicity 1
   maxiter 40
   vectors input h2o.mos
   vectors output h2o.mos
 end

 task mcscf

 scf
   vectors input h2o.mos
   vectors output h2o-trash.mos
   noscf
 end

 tce
   2eorb
   2emet 13
   ccsd
   maxiter 300
 end

 set tce:print_integrals T
 set tce:qorb 8
 set tce:qela 5
 set tce:qelb 5

# set tce:qducc T
# set tce:nactv 3
# set tce:nonhf T
# set tce:ducc_model 6

 set tce:printtol 0.02

 task tce
================================================================================

 Output coordinates in a.u. (scale by  1.000000000 to convert to a.u.)

  No.       Tag          Charge          X              Y              Z
 ---- ---------------- ---------- -------------- -------------- --------------
    1 O                    8.0000    -0.17255800    -0.23930925     0.00000000
    2 H                    1.0000    -0.17255800     2.80238325     0.00000000
    3 H                    1.0000     1.55302200    -0.88790925     0.00000000

 Vector    1  Occ=1.999991D+00  E=-2.058862D+01  Symmetry=a

 Vector    2  Occ=1.998020D+00  E=-1.292576D+00  Symmetry=a

 Vector    3  Occ=1.981238D+00  E=-6.590229D-01  Symmetry=a

 Vector    4  Occ=1.973795D+00  E=-5.279938D-01  Symmetry=a

 Vector    5  Occ=1.844199D+00  E=-5.005472D-01  Symmetry=a

 Vector    6  Occ=1.576182D-01  E=-7.553410D-02  Symmetry=a

 Vector    7  Occ=2.704583D-02  E=-2.626151D-02  Symmetry=a

 Vector    8  Occ=1.809283D-02  E=-1.426943D-02  Symmetry=a

 Vector    9  Occ=0.000000D+00  E= 3.125943D-01  Symmetry=a

 Vector   10  Occ=0.000000D+00  E= 3.557329D-01  Symmetry=a

 Vector   11  Occ=0.000000D+00  E= 6.065880D-01  Symmetry=a

 Vector   12  Occ=0.000000D+00  E= 7.814028D-01  Symmetry=a

 Vector   13  Occ=0.000000D+00  E= 7.836879D-01  Symmetry=a

 Vector   14  Occ=0.000000D+00  E= 8.627870D-01  Symmetry=a

 Vector   15  Occ=0.000000D+00  E= 9.513585D-01  Symmetry=a

 Vector   16  Occ=0.000000D+00  E= 9.871979D-01  Symmetry=a

 Vector   17  Occ=0.000000D+00  E= 1.007306D+00  Symmetry=a

 Vector   18  Occ=0.000000D+00  E= 1.311368D+00  Symmetry=a

         Total SCF energy =    -75.896168662939

 Vector    2  Occ=2.000000D+00  E=-1.292576D+00

 Vector    3  Occ=2.000000D+00  E=-6.590229D-01

 Vector    4  Occ=2.000000D+00  E=-5.279938D-01

 Vector    5  Occ=2.000000D+00  E=-5.005472D-01

 Vector    6  Occ=0.000000D+00  E=-7.553410D-02

 Vector    7  Occ=0.000000D+00  E=-2.626151D-02

 Vector    8  Occ=0.000000D+00  E=-1.426943D-02

 Vector    9  Occ=0.000000D+00  E= 3.125943D-01

 Vector   10  Occ=0.000000D+00  E= 3.557329D-01

 Vector   11  Occ=0.000000D+00  E= 6.065880D-01

 Vector   12  Occ=0.000000D+00  E= 7.814028D-01

 Vector   13  Occ=0.000000D+00  E= 7.836879D-01

 Vector   14  Occ=0.000000D+00  E= 8.627870D-01

 Vector   15  Occ=0.000000D+00  E= 9.513585D-01

       Multipole analysis of the density wrt the origin
       ------------------------------------------------

     L   x y z        total         open         nuclear
     -   - - -        -----         ----         -------
     0   0 0 0     -0.000000      0.000000     10.000000

     1   1 0 0      0.558448      0.000000     -0.000000
     1   0 1 0      0.351719      0.000000     -0.000000
     1   0 0 1      0.000003      0.000000      0.000000

     2   2 0 0     -4.454864      0.000000      2.679864
     2   1 1 0     -0.846204      0.000000     -1.532158
     2   1 0 1     -0.000003      0.000000      0.000000
     2   0 2 0     -2.843170      0.000000      9.099886
     2   0 1 1     -0.000002      0.000000      0.000000

 CCSD total energy / hartree       =       -76.030803495964321
 Total times  cpu:       70.4s     wall:      100.8s
