============================== echo of input deck ==============================
 echo
 start H2O
 title "H2O"

 memory total 24 gb

 geometry units bohr
 symmetry c1
        O  0.00000000  0.00000000  0.00000000
        H  0.00000000  3.1154305  0.00000000
        H  1.72558000 -0.64860000  0.00000000
 end

 basis spherical
   * library cc-pVTZ
 end

 mcscf
   active  8
   actelec 10
   multiplicity 1
   maxiter 40
   vectors input h2o.mos
   vectors output h2o.mos
 end

 task mcscf

 scf
   vectors input h2o.mos
   vectors output h2o-trash.mos
   noscf
 end

 tce
   2eorb
   2emet 13
   ccsd
   maxiter 300
 end

 set tce:print_integrals T
 set tce:qorb 8
 set tce:qela 5
 set tce:qelb 5

# set tce:qducc T
# set tce:nactv 3
# set tce:nonhf T
# set tce:ducc_model 6

 set tce:printtol 0.02

 task tce
================================================================================

 Output coordinates in a.u. (scale by  1.000000000 to convert to a.u.)

  No.       Tag          Charge          X              Y              Z
 ---- ---------------- ---------- -------------- -------------- --------------
    1 O                    8.0000    -0.17255800    -0.24668305     0.00000000
    2 H                    1.0000    -0.17255800     2.86874745     0.00000000
    3 H                    1.0000     1.55302200    -0.89528305     0.00000000

 Vector    1  Occ=1.999991D+00  E=-2.059135D+01  Symmetry=a

 Vector    2  Occ=1.998041D+00  E=-1.293640D+00  Symmetry=a

 Vector    3  Occ=1.981501D+00  E=-6.597069D-01  Symmetry=a

 Vector    4  Occ=1.973800D+00  E=-5.299749D-01  Symmetry=a

 Vector    5  Occ=1.824834D+00  E=-4.929104D-01  Symmetry=a

 Vector    6  Occ=1.769243D-01  E=-8.160232D-02  Symmetry=a

 Vector    7  Occ=2.705787D-02  E=-2.627649D-02  Symmetry=a

 Vector    8  Occ=1.785115D-02  E=-1.411621D-02  Symmetry=a

 Vector    9  Occ=0.000000D+00  E= 3.106046D-01  Symmetry=a

 Vector   10  Occ=0.000000D+00  E= 3.589819D-01  Symmetry=a

 Vector   11  Occ=0.000000D+00  E= 6.075209D-01  Symmetry=a

 Vector   12  Occ=0.000000D+00  E= 7.811164D-01  Symmetry=a

 Vector   13  Occ=0.000000D+00  E= 7.855149D-01  Symmetry=a

 Vector   14  Occ=0.000000D+00  E= 8.658347D-01  Symmetry=a

 Vector   15  Occ=0.000000D+00  E= 9.488977D-01  Symmetry=a

 Vector   16  Occ=0.000000D+00  E= 9.721596D-01  Symmetry=a

 Vector   17  Occ=0.000000D+00  E= 1.000601D+00  Symmetry=a

 Vector   18  Occ=0.000000D+00  E= 1.314783D+00  Symmetry=a

         Total SCF energy =    -75.886226019057

 Vector    2  Occ=2.000000D+00  E=-1.293640D+00

 Vector    3  Occ=2.000000D+00  E=-6.597069D-01

 Vector    4  Occ=2.000000D+00  E=-5.299749D-01

 Vector    5  Occ=2.000000D+00  E=-4.929104D-01

 Vector    6  Occ=0.000000D+00  E=-8.160232D-02

 Vector    7  Occ=0.000000D+00  E=-2.627649D-02

 Vector    8  Occ=0.000000D+00  E=-1.411621D-02

 Vector    9  Occ=0.000000D+00  E= 3.106046D-01

 Vector   10  Occ=0.000000D+00  E= 3.589819D-01

 Vector   11  Occ=0.000000D+00  E= 6.075209D-01

 Vector   12  Occ=0.000000D+00  E= 7.811164D-01

 Vector   13  Occ=0.000000D+00  E= 7.855149D-01

 Vector   14  Occ=0.000000D+00  E= 8.658347D-01

 Vector   15  Occ=0.000000D+00  E= 9.488977D-01

       Multipole analysis of the density wrt the origin
       ------------------------------------------------

     L   x y z        total         open         nuclear
     -   - - -        -----         ----         -------
     0   0 0 0     -0.000000      0.000000     10.000000

     1   1 0 0      0.559016      0.000000     -0.000000
     1   0 1 0      0.329649      0.000000      0.000000
     1   0 0 1      0.000000      0.000000      0.000000

     2   2 0 0     -4.465060      0.000000      2.679864
     2   1 1 0     -0.839693      0.000000     -1.544883
     2   1 0 1     -0.000000      0.000000      0.000000
     2   0 2 0     -2.852489      0.000000      9.518064
     2   0 1 1     -0.000000      0.000000      0.000000

 CCSD total energy / hartree       =       -76.024685149246054
 Total times  cpu:       64.3s     wall:       94.1s
