============================== echo of input deck ==============================
 echo
 start H2O
 title "H2O"

 memory total 24 gb

 geometry units bohr
 symmetry c1
        O  0.00000000  0.00000000  0.00000000
        H  0.00000000  3.1522995  0.00000000
        H  1.72558000 -0.64860000  0.00000000
 end

 basis spherical
   * library cc-pVTZ
 end

 mcscf
   active  8
   actelec 10
   multiplicity 1
   maxiter 40
   vectors input h2o.mos
   vectors output h2o.mos
 end

 task mcscf

 scf
   vectors input h2o.mos
   vectors output h2o-trash.mos
   noscf
 end

 tce
   2eorb
   2emet 13
   ccsd
   maxiter 300
 end

 set tce:print_integrals T
 set tce:qorb 8
 set tce:qela 5
 set tce:qelb 5

# set tce:qducc T
# set tce:nactv 3
# set tce:nonhf T
# set tce:ducc_model 6

 set tce:printtol 0.02

 task tce
================================================================================

 Output coordinates in a.u. (scale by  1.000000000 to convert to a.u.)

  No.       Tag          Charge          X              Y              Z
 ---- ---------------- ---------- -------------- -------------- --------------
    1 O                    8.0000    -0.17255800    -0.25036995     0.00000000
    2 H                    1.0000    -0.17255800     2.90192955     0.00000000
    3 H                    1.0000     1.55302200    -0.89896995     0.00000000

 Vector    1  Occ=1.999991D+00  E=-2.059257D+01  Symmetry=a

 Vector    2  Occ=1.998055D+00  E=-1.294093D+00  Symmetry=a

 Vector    3  Occ=1.981639D+00  E=-6.599899D-01  Symmetry=a

 Vector    4  Occ=1.973808D+00  E=-5.308274D-01  Symmetry=a

 Vector    5  Occ=1.814536D+00  E=-4.893415D-01  Symmetry=a

 Vector    6  Occ=1.871878D-01  E=-8.445007D-02  Symmetry=a

 Vector    7  Occ=2.705758D-02  E=-2.628168D-02  Symmetry=a

 Vector    8  Occ=1.772574D-02  E=-1.406238D-02  Symmetry=a

 Vector    9  Occ=0.000000D+00  E= 3.099766D-01  Symmetry=a

 Vector   10  Occ=0.000000D+00  E= 3.603786D-01  Symmetry=a

 Vector   11  Occ=0.000000D+00  E= 6.076316D-01  Symmetry=a

 Vector   12  Occ=0.000000D+00  E= 7.800733D-01  Symmetry=a

 Vector   13  Occ=0.000000D+00  E= 7.869273D-01  Symmetry=a

 Vector   14  Occ=0.000000D+00  E= 8.671006D-01  Symmetry=a

 Vector   15  Occ=0.000000D+00  E= 9.476393D-01  Symmetry=a

 Vector   16  Occ=0.000000D+00  E= 9.642455D-01  Symmetry=a

 Vector   17  Occ=0.000000D+00  E= 9.973273D-01  Symmetry=a

 Vector   18  Occ=0.000000D+00  E= 1.316401D+00  Symmetry=a

         Total SCF energy =    -75.881334524979

 Vector    2  Occ=2.000000D+00  E=-1.294093D+00

 Vector    3  Occ=2.000000D+00  E=-6.599899D-01

 Vector    4  Occ=2.000000D+00  E=-5.308274D-01

 Vector    5  Occ=2.000000D+00  E=-4.893415D-01

 Vector    6  Occ=0.000000D+00  E=-8.445007D-02

 Vector    7  Occ=0.000000D+00  E=-2.628168D-02

 Vector    8  Occ=0.000000D+00  E=-1.406238D-02

 Vector    9  Occ=0.000000D+00  E= 3.099766D-01

 Vector   10  Occ=0.000000D+00  E= 3.603786D-01

 Vector   11  Occ=0.000000D+00  E= 6.076316D-01

 Vector   12  Occ=0.000000D+00  E= 7.800733D-01

 Vector   13  Occ=0.000000D+00  E= 7.869273D-01

 Vector   14  Occ=0.000000D+00  E= 8.671006D-01

 Vector   15  Occ=0.000000D+00  E= 9.476393D-01

       Multipole analysis of the density wrt the origin
       ------------------------------------------------

     L   x y z        total         open         nuclear
     -   - - -        -----         ----         -------
     0   0 0 0     -0.000000      0.000000     10.000000

     1   1 0 0      0.559387      0.000000     -0.000000
     1   0 1 0      0.318119      0.000000      0.000000
     1   0 0 1      0.000000      0.000000      0.000000

     2   2 0 0     -4.469622      0.000000      2.679864
     2   1 1 0     -0.836099      0.000000     -1.551245
     2   1 0 1     -0.000000      0.000000      0.000000
     2   0 2 0     -2.859655      0.000000      9.730823
     2   0 1 1     -0.000000      0.000000      0.000000

 CCSD total energy / hartree       =       -76.021784824114647
 Total times  cpu:       62.9s     wall:       94.3s
