============================== echo of input deck ==============================
 echo
 start H2O
 title "H2O"

 memory total 24 gb

 geometry units bohr
 symmetry c1
        O  0.00000000  0.00000000  0.00000000
        H  0.00000000  3.170734  0.00000000
        H  1.72558000 -0.64860000  0.00000000
 end

 basis spherical
   * library cc-pVTZ
 end

 mcscf
   active  8
   actelec 10
   multiplicity 1
   maxiter 40
   vectors input h2o.mos
   vectors output h2o.mos
 end

 task mcscf

 scf
   vectors input h2o.mos
   vectors output h2o-trash.mos
   noscf
 end

 tce
   2eorb
   2emet 13
   ccsd
   maxiter 300
 end

 set tce:print_integrals T
 set tce:qorb 8
 set tce:qela 5
 set tce:qelb 5

# set tce:qducc T
# set tce:nactv 3
# set tce:nonhf T
# set tce:ducc_model 6

 set tce:printtol 0.02

 task tce
================================================================================

 Output coordinates in a.u. (scale by  1.000000000 to convert to a.u.)

  No.       Tag          Charge          X              Y              Z
 ---- ---------------- ---------- -------------- -------------- --------------
    1 O                    8.0000    -0.17255800    -0.25221340     0.00000000
    2 H                    1.0000    -0.17255800     2.91852060     0.00000000
    3 H                    1.0000     1.55302200    -0.90081340     0.00000000

 Vector    1  Occ=1.999991D+00  E=-2.059322D+01  Symmetry=a

 Vector    2  Occ=1.998062D+00  E=-1.294386D+00  Symmetry=a

 Vector    3  Occ=1.981707D+00  E=-6.602201D-01  Symmetry=a

 Vector    4  Occ=1.973814D+00  E=-5.313206D-01  Symmetry=a

 Vector    5  Occ=1.809267D+00  E=-4.874004D-01  Symmetry=a

 Vector    6  Occ=1.924386D-01  E=-8.604687D-02  Symmetry=a

 Vector    7  Occ=2.705658D-02  E=-2.628435D-02  Symmetry=a

 Vector    8  Occ=1.766403D-02  E=-1.402655D-02  Symmetry=a

 Vector    9  Occ=0.000000D+00  E= 3.094324D-01  Symmetry=a

 Vector   10  Occ=0.000000D+00  E= 3.611854D-01  Symmetry=a

 Vector   11  Occ=0.000000D+00  E= 6.078882D-01  Symmetry=a

 Vector   12  Occ=0.000000D+00  E= 7.794877D-01  Symmetry=a

 Vector   13  Occ=0.000000D+00  E= 7.877407D-01  Symmetry=a

 Vector   14  Occ=0.000000D+00  E= 8.677289D-01  Symmetry=a

 Vector   15  Occ=0.000000D+00  E= 9.470123D-01  Symmetry=a

 Vector   16  Occ=0.000000D+00  E= 9.605455D-01  Symmetry=a

 Vector   17  Occ=0.000000D+00  E= 9.957897D-01  Symmetry=a

 Vector   18  Occ=0.000000D+00  E= 1.317113D+00  Symmetry=a

         Total SCF energy =    -75.878912639192

 Vector    2  Occ=2.000000D+00  E=-1.294386D+00

 Vector    3  Occ=2.000000D+00  E=-6.602201D-01

 Vector    4  Occ=2.000000D+00  E=-5.313206D-01

 Vector    5  Occ=2.000000D+00  E=-4.874004D-01

 Vector    6  Occ=0.000000D+00  E=-8.604687D-02

 Vector    7  Occ=0.000000D+00  E=-2.628435D-02

 Vector    8  Occ=0.000000D+00  E=-1.402655D-02

 Vector    9  Occ=0.000000D+00  E= 3.094324D-01

 Vector   10  Occ=0.000000D+00  E= 3.611854D-01

 Vector   11  Occ=0.000000D+00  E= 6.078882D-01

 Vector   12  Occ=0.000000D+00  E= 7.794877D-01

 Vector   13  Occ=0.000000D+00  E= 7.877407D-01

 Vector   14  Occ=0.000000D+00  E= 8.677289D-01

 Vector   15  Occ=0.000000D+00  E= 9.470123D-01

       Multipole analysis of the density wrt the origin
       ------------------------------------------------

     L   x y z        total         open         nuclear
     -   - - -        -----         ----         -------
     0   0 0 0     -0.000000      0.000000     10.000000

     1   1 0 0      0.559587      0.000000     -0.000000
     1   0 1 0      0.312362      0.000000     -0.000000
     1   0 0 1      0.000000      0.000000      0.000000

     2   2 0 0     -4.471861      0.000000      2.679864
     2   1 1 0     -0.834244      0.000000     -1.554426
     2   1 0 1     -0.000000      0.000000      0.000000
     2   0 2 0     -2.863522      0.000000      9.838120
     2   0 1 1     -0.000000      0.000000      0.000000

 CCSD total energy / hartree       =       -76.020374185121966
 Total times  cpu:       62.5s     wall:       92.1s
