============================== echo of input deck ==============================
 echo
 start H2O
 title "H2O"

 memory total 24 gb

 geometry units bohr
 symmetry c1
        O  0.00000000  0.00000000  0.00000000
        H  0.00000000  3.2629065  0.00000000
        H  1.72558000 -0.64860000  0.00000000
 end

 basis spherical
   * library cc-pVTZ
 end

 mcscf
   active  8
   actelec 10
   multiplicity 1
   maxiter 40
   vectors input h2o.mos
   vectors output h2o.mos
 end

 task mcscf

 scf
   vectors input h2o.mos
   vectors output h2o-trash.mos
   noscf
 end

 tce
   2eorb
   2emet 13
   ccsd
   maxiter 300
 end

 set tce:print_integrals T
 set tce:qorb 8
 set tce:qela 5
 set tce:qelb 5

# set tce:qducc T
# set tce:nactv 3
# set tce:nonhf T
# set tce:ducc_model 6

 set tce:printtol 0.02

 task tce
================================================================================

 Output coordinates in a.u. (scale by  1.000000000 to convert to a.u.)

  No.       Tag          Charge          X              Y              Z
 ---- ---------------- ---------- -------------- -------------- --------------
    1 O                    8.0000    -0.17255800    -0.26143065     0.00000000
    2 H                    1.0000    -0.17255800     3.00147585     0.00000000
    3 H                    1.0000     1.55302200    -0.91003065     0.00000000

 Vector    1  Occ=1.999991D+00  E=-2.059614D+01  Symmetry=a

 Vector    2  Occ=1.998107D+00  E=-1.295731D+00  Symmetry=a

 Vector    3  Occ=1.982057D+00  E=-6.612862D-01  Symmetry=a

 Vector    4  Occ=1.973854D+00  E=-5.335470D-01  Symmetry=a

 Vector    5  Occ=1.781487D+00  E=-4.781268D-01  Symmetry=a

 Vector    6  Occ=2.201161D-01  E=-9.379288D-02  Symmetry=a

 Vector    7  Occ=2.703824D-02  E=-2.629344D-02  Symmetry=a

 Vector    8  Occ=1.734912D-02  E=-1.388651D-02  Symmetry=a

 Vector    9  Occ=0.000000D+00  E= 3.073896D-01  Symmetry=a

 Vector   10  Occ=0.000000D+00  E= 3.648538D-01  Symmetry=a

 Vector   11  Occ=0.000000D+00  E= 6.085671D-01  Symmetry=a

 Vector   12  Occ=0.000000D+00  E= 7.771458D-01  Symmetry=a

 Vector   13  Occ=0.000000D+00  E= 7.907242D-01  Symmetry=a

 Vector   14  Occ=0.000000D+00  E= 8.701138D-01  Symmetry=a

 Vector   15  Occ=0.000000D+00  E= 9.417718D-01  Symmetry=a

 Vector   16  Occ=0.000000D+00  E= 9.438077D-01  Symmetry=a

 Vector   17  Occ=0.000000D+00  E= 9.884712D-01  Symmetry=a

 Vector   18  Occ=0.000000D+00  E= 1.320355D+00  Symmetry=a

         Total SCF energy =    -75.867007102991

 Vector    2  Occ=2.000000D+00  E=-1.295731D+00

 Vector    3  Occ=2.000000D+00  E=-6.612862D-01

 Vector    4  Occ=2.000000D+00  E=-5.335470D-01

 Vector    5  Occ=2.000000D+00  E=-4.781268D-01

 Vector    6  Occ=0.000000D+00  E=-9.379288D-02

 Vector    7  Occ=0.000000D+00  E=-2.629344D-02

 Vector    8  Occ=0.000000D+00  E=-1.388651D-02

 Vector    9  Occ=0.000000D+00  E= 3.073896D-01

 Vector   10  Occ=0.000000D+00  E= 3.648538D-01

 Vector   11  Occ=0.000000D+00  E= 6.085671D-01

 Vector   12  Occ=0.000000D+00  E= 7.771458D-01

 Vector   13  Occ=0.000000D+00  E= 7.907242D-01

 Vector   14  Occ=0.000000D+00  E= 8.701138D-01

 Vector   15  Occ=0.000000D+00  E= 9.417718D-01

       Multipole analysis of the density wrt the origin
       ------------------------------------------------

     L   x y z        total         open         nuclear
     -   - - -        -----         ----         -------
     0   0 0 0     -0.000000      0.000000     10.000000

     1   1 0 0      0.560784      0.000000     -0.000000
     1   0 1 0      0.282678      0.000000     -0.000000
     1   0 0 1      0.000000      0.000000      0.000000

     2   2 0 0     -4.481706      0.000000      2.679864
     2   1 1 0     -0.824246      0.000000     -1.570331
     2   1 0 1     -0.000000      0.000000      0.000000
     2   0 2 0     -2.888526      0.000000     10.383781
     2   0 1 1     -0.000000      0.000000      0.000000

 CCSD total energy / hartree       =       -76.013715006697922
 Total times  cpu:       70.7s     wall:      104.9s
