============================== echo of input deck ==============================
 echo
 start H2O
 title "H2O"

 memory total 24 gb

 geometry units bohr
 symmetry c1
        O  0.00000000  0.00000000  0.00000000
        H  0.00000000  3.2997755  0.00000000
        H  1.72558000 -0.64860000  0.00000000
 end

 basis spherical
   * library cc-pVTZ
 end

 mcscf
   active  8
   actelec 10
   multiplicity 1
   maxiter 40
   vectors input h2o.mos
   vectors output h2o.mos
 end

 task mcscf

 scf
   vectors input h2o.mos
   vectors output h2o-trash.mos
   noscf
 end

 tce
   2eorb
   2emet 13
   ccsd
   maxiter 300
 end

 set tce:print_integrals T
 set tce:qorb 8
 set tce:qela 5
 set tce:qelb 5

# set tce:qducc T
# set tce:nactv 3
# set tce:nonhf T
# set tce:ducc_model 6

 set tce:printtol 0.02

 task tce
================================================================================

 Output coordinates in a.u. (scale by  1.000000000 to convert to a.u.)

  No.       Tag          Charge          X              Y              Z
 ---- ---------------- ---------- -------------- -------------- --------------
    1 O                    8.0000    -0.17255800    -0.26511755     0.00000000
    2 H                    1.0000    -0.17255800     3.03465795     0.00000000
    3 H                    1.0000     1.55302200    -0.91371755     0.00000000

 Vector    1  Occ=1.999991D+00  E=-2.059724D+01  Symmetry=a

 Vector    2  Occ=1.998128D+00  E=-1.296290D+00  Symmetry=a

 Vector    3  Occ=1.982198D+00  E=-6.617638D-01  Symmetry=a

 Vector    4  Occ=1.973876D+00  E=-5.344204D-01  Symmetry=a

 Vector    5  Occ=1.769783D+00  E=-4.744007D-01  Symmetry=a

 Vector    6  Occ=2.317747D-01  E=-9.699460D-02  Symmetry=a

 Vector    7  Occ=2.702624D-02  E=-2.629578D-02  Symmetry=a

 Vector    8  Occ=1.722393D-02  E=-1.383379D-02  Symmetry=a

 Vector    9  Occ=0.000000D+00  E= 3.065526D-01  Symmetry=a

 Vector   10  Occ=0.000000D+00  E= 3.663115D-01  Symmetry=a

 Vector   11  Occ=0.000000D+00  E= 6.088603D-01  Symmetry=a

 Vector   12  Occ=0.000000D+00  E= 7.763409D-01  Symmetry=a

 Vector   13  Occ=0.000000D+00  E= 7.916656D-01  Symmetry=a

 Vector   14  Occ=0.000000D+00  E= 8.707329D-01  Symmetry=a

 Vector   15  Occ=0.000000D+00  E= 9.345323D-01  Symmetry=a

 Vector   16  Occ=0.000000D+00  E= 9.425081D-01  Symmetry=a

 Vector   17  Occ=0.000000D+00  E= 9.858108D-01  Symmetry=a

 Vector   18  Occ=0.000000D+00  E= 1.321414D+00  Symmetry=a

         Total SCF energy =    -75.862345704407

 Vector    2  Occ=2.000000D+00  E=-1.296290D+00

 Vector    3  Occ=2.000000D+00  E=-6.617638D-01

 Vector    4  Occ=2.000000D+00  E=-5.344204D-01

 Vector    5  Occ=2.000000D+00  E=-4.744007D-01

 Vector    6  Occ=0.000000D+00  E=-9.699460D-02

 Vector    7  Occ=0.000000D+00  E=-2.629578D-02

 Vector    8  Occ=0.000000D+00  E=-1.383379D-02

 Vector    9  Occ=0.000000D+00  E= 3.065526D-01

 Vector   10  Occ=0.000000D+00  E= 3.663115D-01

 Vector   11  Occ=0.000000D+00  E= 6.088603D-01

 Vector   12  Occ=0.000000D+00  E= 7.763409D-01

 Vector   13  Occ=0.000000D+00  E= 7.916656D-01

 Vector   14  Occ=0.000000D+00  E= 8.707329D-01

 Vector   15  Occ=0.000000D+00  E= 9.345323D-01

       Multipole analysis of the density wrt the origin
       ------------------------------------------------

     L   x y z        total         open         nuclear
     -   - - -        -----         ----         -------
     0   0 0 0     -0.000000      0.000000     10.000000

     1   1 0 0      0.561339      0.000000     -0.000000
     1   0 1 0      0.270620      0.000000      0.000000
     1   0 0 1      0.000000      0.000000      0.000000

     2   2 0 0     -4.485141      0.000000      2.679864
     2   1 1 0     -0.819966      0.000000     -1.576693
     2   1 0 1     -0.000000      0.000000      0.000000
     2   0 2 0     -2.900587      0.000000     10.606327
     2   0 1 1     -0.000000      0.000000      0.000000

 CCSD total energy / hartree       =       -76.011232756490543
 Total times  cpu:       72.1s     wall:      105.8s
