============================== echo of input deck ==============================
 echo
 start H2O
 title "H2O"

 memory total 24 gb

 geometry units bohr
 symmetry c1
        O  0.00000000  0.00000000  0.00000000
        H  0.00000000  3.391948  0.00000000
        H  1.72558000 -0.64860000  0.00000000
 end

 basis spherical
   * library cc-pVTZ
 end

 mcscf
   active  8
   actelec 10
   multiplicity 1
   maxiter 40
   vectors input h2o.mos
   vectors output h2o.mos
 end

 task mcscf

 scf
   vectors input h2o.mos
   vectors output h2o-trash.mos
   noscf
 end

 tce
   2eorb
   2emet 13
   ccsd
   maxiter 300
 end

 set tce:print_integrals T
 set tce:qorb 8
 set tce:qela 5
 set tce:qelb 5

# set tce:qducc T
# set tce:nactv 3
# set tce:nonhf T
# set tce:ducc_model 6

 set tce:printtol 0.02

 task tce
================================================================================

 Output coordinates in a.u. (scale by  1.000000000 to convert to a.u.)

  No.       Tag          Charge          X              Y              Z
 ---- ---------------- ---------- -------------- -------------- --------------
    1 O                    8.0000    -0.17255800    -0.27433480     0.00000000
    2 H                    1.0000    -0.17255800     3.11761320     0.00000000
    3 H                    1.0000     1.55302200    -0.92293480     0.00000000

 Vector    1  Occ=1.999991D+00  E=-2.059980D+01  Symmetry=a

 Vector    2  Occ=1.998183D+00  E=-1.297693D+00  Symmetry=a

 Vector    3  Occ=1.982544D+00  E=-6.630244D-01  Symmetry=a

 Vector    4  Occ=1.973937D+00  E=-5.365285D-01  Symmetry=a

 Vector    5  Occ=1.739227D+00  E=-4.650875D-01  Symmetry=a

 Vector    6  Occ=2.622131D-01  E=-1.052059D-01  Symmetry=a

 Vector    7  Occ=2.698726D-02  E=-2.629845D-02  Symmetry=a

 Vector    8  Occ=1.691715D-02  E=-1.371004D-02  Symmetry=a

 Vector    9  Occ=0.000000D+00  E= 3.044337D-01  Symmetry=a

 Vector   10  Occ=0.000000D+00  E= 3.699114D-01  Symmetry=a

 Vector   11  Occ=0.000000D+00  E= 6.096486D-01  Symmetry=a

 Vector   12  Occ=0.000000D+00  E= 7.746586D-01  Symmetry=a

 Vector   13  Occ=0.000000D+00  E= 7.933564D-01  Symmetry=a

 Vector   14  Occ=0.000000D+00  E= 8.711435D-01  Symmetry=a

 Vector   15  Occ=0.000000D+00  E= 9.174602D-01  Symmetry=a

 Vector   16  Occ=0.000000D+00  E= 9.392276D-01  Symmetry=a

 Vector   17  Occ=0.000000D+00  E= 9.798998D-01  Symmetry=a

 Vector   18  Occ=0.000000D+00  E= 1.323413D+00  Symmetry=a

         Total SCF energy =    -75.850947308712

 Vector    2  Occ=2.000000D+00  E=-1.297693D+00

 Vector    3  Occ=2.000000D+00  E=-6.630244D-01

 Vector    4  Occ=2.000000D+00  E=-5.365285D-01

 Vector    5  Occ=2.000000D+00  E=-4.650875D-01

 Vector    6  Occ=0.000000D+00  E=-1.052059D-01

 Vector    7  Occ=0.000000D+00  E=-2.629845D-02

 Vector    8  Occ=0.000000D+00  E=-1.371004D-02

 Vector    9  Occ=0.000000D+00  E= 3.044337D-01

 Vector   10  Occ=0.000000D+00  E= 3.699114D-01

 Vector   11  Occ=0.000000D+00  E= 6.096486D-01

 Vector   12  Occ=0.000000D+00  E= 7.746586D-01

 Vector   13  Occ=0.000000D+00  E= 7.933564D-01

 Vector   14  Occ=0.000000D+00  E= 8.711435D-01

 Vector   15  Occ=0.000000D+00  E= 9.174602D-01

       Multipole analysis of the density wrt the origin
       ------------------------------------------------

     L   x y z        total         open         nuclear
     -   - - -        -----         ----         -------
     0   0 0 0     -0.000000      0.000000     10.000000

     1   1 0 0      0.562894      0.000000     -0.000000
     1   0 1 0      0.240336      0.000000      0.000000
     1   0 0 1      0.000000      0.000000      0.000000

     2   2 0 0     -4.492526      0.000000      2.679864
     2   1 1 0     -0.808699      0.000000     -1.592598
     2   1 0 1     -0.000000      0.000000      0.000000
     2   0 2 0     -2.935127      0.000000     11.173397
     2   0 1 1     -0.000000      0.000000      0.000000

 CCSD total energy / hartree       =       -76.005468511050850
 Total times  cpu:       71.4s     wall:      105.3s
