============================== echo of input deck ==============================
 echo
 start H2O
 title "H2O"

 memory total 24 gb

 geometry units bohr
 symmetry c1
        O  0.00000000  0.00000000  0.00000000
        H  0.00000000  3.4841205  0.00000000
        H  1.72558000 -0.64860000  0.00000000
 end

 basis spherical
   * library cc-pVTZ
 end

 mcscf
   active  8
   actelec 10
   multiplicity 1
   maxiter 40
   vectors input h2o.mos
   vectors output h2o.mos
 end

 task mcscf

 scf
   vectors input h2o.mos
   vectors output h2o-trash.mos
   noscf
 end

 tce
   2eorb
   2emet 13
   ccsd
   maxiter 300
 end

 set tce:print_integrals T
 set tce:qorb 8
 set tce:qela 5
 set tce:qelb 5

# set tce:qducc T
# set tce:nactv 3
# set tce:nonhf T
# set tce:ducc_model 6

 set tce:printtol 0.02

 task tce
================================================================================

 Output coordinates in a.u. (scale by  1.000000000 to convert to a.u.)

  No.       Tag          Charge          X              Y              Z
 ---- ---------------- ---------- -------------- -------------- --------------
    1 O                    8.0000    -0.17255800    -0.28355205     0.00000000
    2 H                    1.0000    -0.17255800     3.20056845     0.00000000
    3 H                    1.0000     1.55302200    -0.93215205     0.00000000

 Vector    1  Occ=1.999991D+00  E=-2.060205D+01  Symmetry=a

 Vector    2  Occ=1.998243D+00  E=-1.299062D+00  Symmetry=a

 Vector    3  Occ=1.982878D+00  E=-6.643144D-01  Symmetry=a

 Vector    4  Occ=1.974008D+00  E=-5.384975D-01  Symmetry=a

 Vector    5  Occ=1.707115D+00  E=-4.558397D-01  Symmetry=a

 Vector    6  Occ=2.942027D-01  E=-1.136327D-01  Symmetry=a

 Vector    7  Occ=2.693891D-02  E=-2.629709D-02  Symmetry=a

 Vector    8  Occ=1.662412D-02  E=-1.359750D-02  Symmetry=a

 Vector    9  Occ=0.000000D+00  E= 3.023154D-01  Symmetry=a

 Vector   10  Occ=0.000000D+00  E= 3.734282D-01  Symmetry=a

 Vector   11  Occ=0.000000D+00  E= 6.105131D-01  Symmetry=a

 Vector   12  Occ=0.000000D+00  E= 7.734330D-01  Symmetry=a

 Vector   13  Occ=0.000000D+00  E= 7.939802D-01  Symmetry=a

 Vector   14  Occ=0.000000D+00  E= 8.691866D-01  Symmetry=a

 Vector   15  Occ=0.000000D+00  E= 9.027615D-01  Symmetry=a

 Vector   16  Occ=0.000000D+00  E= 9.359151D-01  Symmetry=a

 Vector   17  Occ=0.000000D+00  E= 9.751374D-01  Symmetry=a

 Vector   18  Occ=0.000000D+00  E= 1.324370D+00  Symmetry=a

         Total SCF energy =    -75.839916342457

 Vector    2  Occ=2.000000D+00  E=-1.299062D+00

 Vector    3  Occ=2.000000D+00  E=-6.643144D-01

 Vector    4  Occ=2.000000D+00  E=-5.384975D-01

 Vector    5  Occ=2.000000D+00  E=-4.558397D-01

 Vector    6  Occ=0.000000D+00  E=-1.136327D-01

 Vector    7  Occ=0.000000D+00  E=-2.629709D-02

 Vector    8  Occ=0.000000D+00  E=-1.359750D-02

 Vector    9  Occ=0.000000D+00  E= 3.023154D-01

 Vector   10  Occ=0.000000D+00  E= 3.734282D-01

 Vector   11  Occ=0.000000D+00  E= 6.105131D-01

 Vector   12  Occ=0.000000D+00  E= 7.734330D-01

 Vector   13  Occ=0.000000D+00  E= 7.939802D-01

 Vector   14  Occ=0.000000D+00  E= 8.691866D-01

 Vector   15  Occ=0.000000D+00  E= 9.027615D-01

       Multipole analysis of the density wrt the origin
       ------------------------------------------------

     L   x y z        total         open         nuclear
     -   - - -        -----         ----         -------
     0   0 0 0     -0.000000      0.000000     10.000000

     1   1 0 0      0.564650      0.000000     -0.000000
     1   0 1 0      0.210255      0.000000     -0.000000
     1   0 0 1      0.000000      0.000000      0.000000

     2   2 0 0     -4.498284      0.000000      2.679864
     2   1 1 0     -0.796811      0.000000     -1.608503
     2   1 0 1     -0.000000      0.000000      0.000000
     2   0 2 0     -2.974871      0.000000     11.755760
     2   0 1 1     -0.000000      0.000000      0.000000

 CCSD total energy / hartree       =       -76.000311534286297
 Total times  cpu:       71.8s     wall:      105.9s
