============================== echo of input deck ==============================
 echo
 start H2O
 title "H2O"

 memory total 24 gb

 geometry units bohr
 symmetry c1
        O  0.00000000  0.00000000  0.00000000
        H  0.00000000  3.502555  0.00000000
        H  1.72558000 -0.64860000  0.00000000
 end

 basis spherical
   * library cc-pVTZ
 end

 mcscf
   active  8
   actelec 10
   multiplicity 1
   maxiter 40
   vectors input h2o.mos
   vectors output h2o.mos
 end

 task mcscf

 scf
   vectors input h2o.mos
   vectors output h2o-trash.mos
   noscf
 end

 tce
   2eorb
   2emet 13
   ccsd
   maxiter 300
 end

 set tce:print_integrals T
 set tce:qorb 8
 set tce:qela 5
 set tce:qelb 5

# set tce:qducc T
# set tce:nactv 3
# set tce:nonhf T
# set tce:ducc_model 6

 set tce:printtol 0.02

 task tce
================================================================================

 Output coordinates in a.u. (scale by  1.000000000 to convert to a.u.)

  No.       Tag          Charge          X              Y              Z
 ---- ---------------- ---------- -------------- -------------- --------------
    1 O                    8.0000    -0.17255800    -0.28539550     0.00000000
    2 H                    1.0000    -0.17255800     3.21715950     0.00000000
    3 H                    1.0000     1.55302200    -0.93399550     0.00000000

 Vector    1  Occ=1.999991D+00  E=-2.060239D+01  Symmetry=a

 Vector    2  Occ=1.998255D+00  E=-1.299259D+00  Symmetry=a

 Vector    3  Occ=1.982943D+00  E=-6.644636D-01  Symmetry=a

 Vector    4  Occ=1.974023D+00  E=-5.387760D-01  Symmetry=a

 Vector    5  Occ=1.700531D+00  E=-4.542916D-01  Symmetry=a

 Vector    6  Occ=3.007614D-01  E=-1.150733D-01  Symmetry=a

 Vector    7  Occ=2.692823D-02  E=-2.630108D-02  Symmetry=a

 Vector    8  Occ=1.656713D-02  E=-1.359346D-02  Symmetry=a

 Vector    9  Occ=0.000000D+00  E= 3.023492D-01  Symmetry=a

 Vector   10  Occ=0.000000D+00  E= 3.739983D-01  Symmetry=a

 Vector   11  Occ=0.000000D+00  E= 6.103864D-01  Symmetry=a

 Vector   12  Occ=0.000000D+00  E= 7.733466D-01  Symmetry=a

 Vector   13  Occ=0.000000D+00  E= 7.937896D-01  Symmetry=a

 Vector   14  Occ=0.000000D+00  E= 8.681800D-01  Symmetry=a

 Vector   15  Occ=0.000000D+00  E= 9.001281D-01  Symmetry=a

 Vector   16  Occ=0.000000D+00  E= 9.352060D-01  Symmetry=a

 Vector   17  Occ=0.000000D+00  E= 9.742905D-01  Symmetry=a

 Vector   18  Occ=0.000000D+00  E= 1.324516D+00  Symmetry=a

         Total SCF energy =    -75.837753204673

 Vector    2  Occ=2.000000D+00  E=-1.299259D+00

 Vector    3  Occ=2.000000D+00  E=-6.644636D-01

 Vector    4  Occ=2.000000D+00  E=-5.387760D-01

 Vector    5  Occ=2.000000D+00  E=-4.542916D-01

 Vector    6  Occ=0.000000D+00  E=-1.150733D-01

 Vector    7  Occ=0.000000D+00  E=-2.630108D-02

 Vector    8  Occ=0.000000D+00  E=-1.359346D-02

 Vector    9  Occ=0.000000D+00  E= 3.023492D-01

 Vector   10  Occ=0.000000D+00  E= 3.739983D-01

 Vector   11  Occ=0.000000D+00  E= 6.103864D-01

 Vector   12  Occ=0.000000D+00  E= 7.733466D-01

 Vector   13  Occ=0.000000D+00  E= 7.937896D-01

 Vector   14  Occ=0.000000D+00  E= 8.681800D-01

 Vector   15  Occ=0.000000D+00  E= 9.001281D-01

       Multipole analysis of the density wrt the origin
       ------------------------------------------------

     L   x y z        total         open         nuclear
     -   - - -        -----         ----         -------
     0   0 0 0     -0.000000      0.000000     10.000000

     1   1 0 0      0.565027      0.000000     -0.000000
     1   0 1 0      0.204276      0.000000      0.000000
     1   0 0 1      0.000000      0.000000      0.000000

     2   2 0 0     -4.499221      0.000000      2.679864
     2   1 1 0     -0.794373      0.000000     -1.611684
     2   1 0 1     -0.000000      0.000000      0.000000
     2   0 2 0     -2.983424      0.000000     11.874068
     2   0 1 1     -0.000000      0.000000      0.000000

 CCSD total energy / hartree       =       -75.999350105067137
 Total times  cpu:       81.0s     wall:      115.9s
