============================== echo of input deck ==============================
 echo
 start H2O
 title "H2O"

 memory total 24 gb

 geometry units bohr
 symmetry c1
        O  0.00000000  0.00000000  0.00000000
        H  0.00000000  3.539424  0.00000000
        H  1.72558000 -0.64860000  0.00000000
 end

 basis spherical
   * library cc-pVTZ
 end

 mcscf
   active  8
   actelec 10
   multiplicity 1
   maxiter 40
   vectors input h2o.mos
   vectors output h2o.mos
 end

 task mcscf

 scf
   vectors input h2o.mos
   vectors output h2o-trash.mos
   noscf
 end

 tce
   2eorb
   2emet 13
   ccsd
   maxiter 300
 end

 set tce:print_integrals T
 set tce:qorb 8
 set tce:qela 5
 set tce:qelb 5

# set tce:qducc T
# set tce:nactv 3
# set tce:nonhf T
# set tce:ducc_model 6

 set tce:printtol 0.02

 task tce
================================================================================

 Output coordinates in a.u. (scale by  1.000000000 to convert to a.u.)

  No.       Tag          Charge          X              Y              Z
 ---- ---------------- ---------- -------------- -------------- --------------
    1 O                    8.0000    -0.17255800    -0.28908240     0.00000000
    2 H                    1.0000    -0.17255800     3.25034160     0.00000000
    3 H                    1.0000     1.55302200    -0.93768240     0.00000000

 Vector    1  Occ=1.999991D+00  E=-2.060327D+01  Symmetry=a

 Vector    2  Occ=1.998279D+00  E=-1.299849D+00  Symmetry=a

 Vector    3  Occ=1.983069D+00  E=-6.650744D-01  Symmetry=a

 Vector    4  Occ=1.974053D+00  E=-5.395993D-01  Symmetry=a

 Vector    5  Occ=1.687267D+00  E=-4.503531D-01  Symmetry=a

 Vector    6  Occ=3.139758D-01  E=-1.187497D-01  Symmetry=a

 Vector    7  Occ=2.690706D-02  E=-2.629461D-02  Symmetry=a

 Vector    8  Occ=1.645690D-02  E=-1.353516D-02  Symmetry=a

 Vector    9  Occ=0.000000D+00  E= 3.010602D-01  Symmetry=a

 Vector   10  Occ=0.000000D+00  E= 3.754915D-01  Symmetry=a

 Vector   11  Occ=0.000000D+00  E= 6.110698D-01  Symmetry=a

 Vector   12  Occ=0.000000D+00  E= 7.729061D-01  Symmetry=a

 Vector   13  Occ=0.000000D+00  E= 7.937286D-01  Symmetry=a

 Vector   14  Occ=0.000000D+00  E= 8.663627D-01  Symmetry=a

 Vector   15  Occ=0.000000D+00  E= 8.957452D-01  Symmetry=a

 Vector   16  Occ=0.000000D+00  E= 9.339192D-01  Symmetry=a

 Vector   17  Occ=0.000000D+00  E= 9.728678D-01  Symmetry=a

 Vector   18  Occ=0.000000D+00  E= 1.324378D+00  Symmetry=a

         Total SCF energy =    -75.833474966949

 Vector    2  Occ=2.000000D+00  E=-1.299849D+00

 Vector    3  Occ=2.000000D+00  E=-6.650744D-01

 Vector    4  Occ=2.000000D+00  E=-5.395993D-01

 Vector    5  Occ=2.000000D+00  E=-4.503531D-01

 Vector    6  Occ=0.000000D+00  E=-1.187497D-01

 Vector    7  Occ=0.000000D+00  E=-2.629461D-02

 Vector    8  Occ=0.000000D+00  E=-1.353516D-02

 Vector    9  Occ=0.000000D+00  E= 3.010602D-01

 Vector   10  Occ=0.000000D+00  E= 3.754915D-01

 Vector   11  Occ=0.000000D+00  E= 6.110698D-01

 Vector   12  Occ=0.000000D+00  E= 7.729061D-01

 Vector   13  Occ=0.000000D+00  E= 7.937286D-01

 Vector   14  Occ=0.000000D+00  E= 8.663627D-01

 Vector   15  Occ=0.000000D+00  E= 8.957452D-01

       Multipole analysis of the density wrt the origin
       ------------------------------------------------

     L   x y z        total         open         nuclear
     -   - - -        -----         ----         -------
     0   0 0 0     -0.000000      0.000000     10.000000

     1   1 0 0      0.565781      0.000000     -0.000000
     1   0 1 0      0.192484      0.000000     -0.000000
     1   0 0 1      0.000000      0.000000      0.000000

     2   2 0 0     -4.501007      0.000000      2.679864
     2   1 1 0     -0.789480      0.000000     -1.618046
     2   1 0 1     -0.000000      0.000000      0.000000
     2   0 2 0     -3.000696      0.000000     12.112518
     2   0 1 1     -0.000000      0.000000      0.000000

 CCSD total energy / hartree       =       -75.997494598420190
 Total times  cpu:       69.3s     wall:      103.3s
