============================== echo of input deck ==============================
 echo
 start H2O
 title "H2O"

 memory total 24 gb

 geometry units bohr
 symmetry c1
        O  0.00000000  0.00000000  0.00000000
        H  0.00000000  3.5578585  0.00000000
        H  1.72558000 -0.64860000  0.00000000
 end

 basis spherical
   * library cc-pVTZ
 end

 mcscf
   active  8
   actelec 10
   multiplicity 1
   maxiter 40
   vectors input h2o.mos
   vectors output h2o.mos
 end

 task mcscf

 scf
   vectors input h2o.mos
   vectors output h2o-trash.mos
   noscf
 end

 tce
   2eorb
   2emet 13
   ccsd
   maxiter 300
 end

 set tce:print_integrals T
 set tce:qorb 8
 set tce:qela 5
 set tce:qelb 5

# set tce:qducc T
# set tce:nactv 3
# set tce:nonhf T
# set tce:ducc_model 6

 set tce:printtol 0.02

 task tce
================================================================================

 Output coordinates in a.u. (scale by  1.000000000 to convert to a.u.)

  No.       Tag          Charge          X              Y              Z
 ---- ---------------- ---------- -------------- -------------- --------------
    1 O                    8.0000    -0.17255800    -0.29092585     0.00000000
    2 H                    1.0000    -0.17255800     3.26693265     0.00000000
    3 H                    1.0000     1.55302200    -0.93952585     0.00000000

 Vector    1  Occ=1.999991D+00  E=-2.060365D+01  Symmetry=a

 Vector    2  Occ=1.998292D+00  E=-1.300103D+00  Symmetry=a

 Vector    3  Occ=1.983131D+00  E=-6.653225D-01  Symmetry=a

 Vector    4  Occ=1.974069D+00  E=-5.399518D-01  Symmetry=a

 Vector    5  Occ=1.680575D+00  E=-4.485380D-01  Symmetry=a

 Vector    6  Occ=3.206434D-01  E=-1.204602D-01  Symmetry=a

 Vector    7  Occ=2.689611D-02  E=-2.629346D-02  Symmetry=a

 Vector    8  Occ=1.640275D-02  E=-1.351519D-02  Symmetry=a

 Vector    9  Occ=0.000000D+00  E= 3.006443D-01  Symmetry=a

 Vector   10  Occ=0.000000D+00  E= 3.761707D-01  Symmetry=a

 Vector   11  Occ=0.000000D+00  E= 6.112623D-01  Symmetry=a

 Vector   12  Occ=0.000000D+00  E= 7.727639D-01  Symmetry=a

 Vector   13  Occ=0.000000D+00  E= 7.935203D-01  Symmetry=a

 Vector   14  Occ=0.000000D+00  E= 8.651097D-01  Symmetry=a

 Vector   15  Occ=0.000000D+00  E= 8.937700D-01  Symmetry=a

 Vector   16  Occ=0.000000D+00  E= 9.332536D-01  Symmetry=a

 Vector   17  Occ=0.000000D+00  E= 9.722119D-01  Symmetry=a

 Vector   18  Occ=0.000000D+00  E= 1.324277D+00  Symmetry=a

         Total SCF energy =    -75.831357414745

 Vector    2  Occ=2.000000D+00  E=-1.300103D+00

 Vector    3  Occ=2.000000D+00  E=-6.653225D-01

 Vector    4  Occ=2.000000D+00  E=-5.399518D-01

 Vector    5  Occ=2.000000D+00  E=-4.485380D-01

 Vector    6  Occ=0.000000D+00  E=-1.204602D-01

 Vector    7  Occ=0.000000D+00  E=-2.629346D-02

 Vector    8  Occ=0.000000D+00  E=-1.351519D-02

 Vector    9  Occ=0.000000D+00  E= 3.006443D-01

 Vector   10  Occ=0.000000D+00  E= 3.761707D-01

 Vector   11  Occ=0.000000D+00  E= 6.112623D-01

 Vector   12  Occ=0.000000D+00  E= 7.727639D-01

 Vector   13  Occ=0.000000D+00  E= 7.935203D-01

 Vector   14  Occ=0.000000D+00  E= 8.651097D-01

 Vector   15  Occ=0.000000D+00  E= 8.937700D-01

       Multipole analysis of the density wrt the origin
       ------------------------------------------------

     L   x y z        total         open         nuclear
     -   - - -        -----         ----         -------
     0   0 0 0     -0.000000      0.000000     10.000000

     1   1 0 0      0.566169      0.000000     -0.000000
     1   0 1 0      0.186624      0.000000      0.000000
     1   0 0 1      0.000000      0.000000      0.000000

     2   2 0 0     -4.501799      0.000000      2.679864
     2   1 1 0     -0.787013      0.000000     -1.621227
     2   1 0 1     -0.000000      0.000000      0.000000
     2   0 2 0     -3.009577      0.000000     12.232661
     2   0 1 1     -0.000000      0.000000      0.000000

 CCSD total energy / hartree       =       -75.996599999419843
 Total times  cpu:       70.8s     wall:      104.2s
