============================== echo of input deck ==============================
 echo
 start H2O
 title "H2O"

 memory total 24 gb

 geometry units bohr
 symmetry c1
        O  0.00000000  0.00000000  0.00000000
        H  0.00000000  3.6315965  0.00000000
        H  1.72558000 -0.64860000  0.00000000
 end

 basis spherical
   * library cc-pVTZ
 end

 mcscf
   active  8
   actelec 10
   multiplicity 1
   maxiter 40
   vectors input h2o.mos
   vectors output h2o.mos
 end

 task mcscf

 scf
   vectors input h2o.mos
   vectors output h2o-trash.mos
   noscf
 end

 tce
   2eorb
   2emet 13
   ccsd
   maxiter 300
 end

 set tce:print_integrals T
 set tce:qorb 8
 set tce:qela 5
 set tce:qelb 5

# set tce:qducc T
# set tce:nactv 3
# set tce:nonhf T
# set tce:ducc_model 6

 set tce:printtol 0.02

 task tce
================================================================================

 Output coordinates in a.u. (scale by  1.000000000 to convert to a.u.)

  No.       Tag          Charge          X              Y              Z
 ---- ---------------- ---------- -------------- -------------- --------------
    1 O                    8.0000    -0.17255800    -0.29829965     0.00000000
    2 H                    1.0000    -0.17255800     3.33329685     0.00000000
    3 H                    1.0000     1.55302200    -0.94689965     0.00000000

 Vector    1  Occ=1.999991D+00  E=-2.060505D+01  Symmetry=a

 Vector    2  Occ=1.998340D+00  E=-1.301079D+00  Symmetry=a

 Vector    3  Occ=1.983371D+00  E=-6.662830D-01  Symmetry=a

 Vector    4  Occ=1.974130D+00  E=-5.412884D-01  Symmetry=a

 Vector    5  Occ=1.653514D+00  E=-4.413595D-01  Symmetry=a

 Vector    6  Occ=3.476070D-01  E=-1.273077D-01  Symmetry=a

 Vector    7  Occ=2.685135D-02  E=-2.628797D-02  Symmetry=a

 Vector    8  Occ=1.619469D-02  E=-1.343937D-02  Symmetry=a

 Vector    9  Occ=0.000000D+00  E= 2.990104D-01  Symmetry=a

 Vector   10  Occ=0.000000D+00  E= 3.788457D-01  Symmetry=a

 Vector   11  Occ=0.000000D+00  E= 6.120667D-01  Symmetry=a

 Vector   12  Occ=0.000000D+00  E= 7.723525D-01  Symmetry=a

 Vector   13  Occ=0.000000D+00  E= 7.919533D-01  Symmetry=a

 Vector   14  Occ=0.000000D+00  E= 8.588153D-01  Symmetry=a

 Vector   15  Occ=0.000000D+00  E= 8.875596D-01  Symmetry=a

 Vector   16  Occ=0.000000D+00  E= 9.305902D-01  Symmetry=a

 Vector   17  Occ=0.000000D+00  E= 9.700860D-01  Symmetry=a

 Vector   18  Occ=0.000000D+00  E= 1.323327D+00  Symmetry=a

         Total SCF energy =    -75.823035041295

 Vector    2  Occ=2.000000D+00  E=-1.301079D+00

 Vector    3  Occ=2.000000D+00  E=-6.662830D-01

 Vector    4  Occ=2.000000D+00  E=-5.412884D-01

 Vector    5  Occ=2.000000D+00  E=-4.413595D-01

 Vector    6  Occ=0.000000D+00  E=-1.273077D-01

 Vector    7  Occ=0.000000D+00  E=-2.628797D-02

 Vector    8  Occ=0.000000D+00  E=-1.343937D-02

 Vector    9  Occ=0.000000D+00  E= 2.990104D-01

 Vector   10  Occ=0.000000D+00  E= 3.788457D-01

 Vector   11  Occ=0.000000D+00  E= 6.120667D-01

 Vector   12  Occ=0.000000D+00  E= 7.723525D-01

 Vector   13  Occ=0.000000D+00  E= 7.919533D-01

 Vector   14  Occ=0.000000D+00  E= 8.588153D-01

 Vector   15  Occ=0.000000D+00  E= 8.875596D-01

       Multipole analysis of the density wrt the origin
       ------------------------------------------------

     L   x y z        total         open         nuclear
     -   - - -        -----         ----         -------
     0   0 0 0     -0.000000      0.000000     10.000000

     1   1 0 0      0.567772      0.000000     -0.000000
     1   0 1 0      0.163565      0.000000     -0.000000
     1   0 0 1      0.000000      0.000000      0.000000

     2   2 0 0     -4.504418      0.000000      2.679864
     2   1 1 0     -0.777078      0.000000     -1.633951
     2   1 0 1     -0.000000      0.000000      0.000000
     2   0 2 0     -3.046247      0.000000     12.719348
     2   0 1 1     -0.000000      0.000000      0.000000

 CCSD total energy / hartree       =       -75.993234812631982
 Total times  cpu:       71.2s     wall:      104.8s
