============================== echo of input deck ==============================
 echo
 start H2O
 title "H2O"

 memory total 24 gb

 geometry units bohr
 symmetry c1
        O  0.00000000  0.00000000  0.00000000
        H  0.00000000  3.650031  0.00000000
        H  1.72558000 -0.64860000  0.00000000
 end

 basis spherical
   * library cc-pVTZ
 end

 mcscf
   active  8
   actelec 10
   multiplicity 1
   maxiter 40
   vectors input h2o.mos
   vectors output h2o.mos
 end

 task mcscf

 scf
   vectors input h2o.mos
   vectors output h2o-trash.mos
   noscf
 end

 tce
   2eorb
   2emet 13
   ccsd
   maxiter 300
 end

 set tce:print_integrals T
 set tce:qorb 8
 set tce:qela 5
 set tce:qelb 5

# set tce:qducc T
# set tce:nactv 3
# set tce:nonhf T
# set tce:ducc_model 6

 set tce:printtol 0.02

 task tce
================================================================================

 Output coordinates in a.u. (scale by  1.000000000 to convert to a.u.)

  No.       Tag          Charge          X              Y              Z
 ---- ---------------- ---------- -------------- -------------- --------------
    1 O                    8.0000    -0.17255800    -0.30014310     0.00000000
    2 H                    1.0000    -0.17255800     3.34988790     0.00000000
    3 H                    1.0000     1.55302200    -0.94874310     0.00000000

 Vector    1  Occ=1.999991D+00  E=-2.060537D+01  Symmetry=a

 Vector    2  Occ=1.998352D+00  E=-1.301310D+00  Symmetry=a

 Vector    3  Occ=1.983428D+00  E=-6.665133D-01  Symmetry=a

 Vector    4  Occ=1.974146D+00  E=-5.416033D-01  Symmetry=a

 Vector    5  Occ=1.646693D+00  E=-4.395881D-01  Symmetry=a

 Vector    6  Occ=3.544045D-01  E=-1.290164D-01  Symmetry=a

 Vector    7  Occ=2.684002D-02  E=-2.628626D-02  Symmetry=a

 Vector    8  Occ=1.614487D-02  E=-1.342137D-02  Symmetry=a

 Vector    9  Occ=0.000000D+00  E= 2.986074D-01  Symmetry=a

 Vector   10  Occ=0.000000D+00  E= 3.795036D-01  Symmetry=a

 Vector   11  Occ=0.000000D+00  E= 6.122770D-01  Symmetry=a

 Vector   12  Occ=0.000000D+00  E= 7.722876D-01  Symmetry=a

 Vector   13  Occ=0.000000D+00  E= 7.913533D-01  Symmetry=a

 Vector   14  Occ=0.000000D+00  E= 8.570352D-01  Symmetry=a

 Vector   15  Occ=0.000000D+00  E= 8.863488D-01  Symmetry=a

 Vector   16  Occ=0.000000D+00  E= 9.299254D-01  Symmetry=a

 Vector   17  Occ=0.000000D+00  E= 9.696780D-01  Symmetry=a

 Vector   18  Occ=0.000000D+00  E= 1.322944D+00  Symmetry=a

         Total SCF energy =    -75.820991361067

 Vector    2  Occ=2.000000D+00  E=-1.301310D+00

 Vector    3  Occ=2.000000D+00  E=-6.665133D-01

 Vector    4  Occ=2.000000D+00  E=-5.416033D-01

 Vector    5  Occ=2.000000D+00  E=-4.395881D-01

 Vector    6  Occ=0.000000D+00  E=-1.290164D-01

 Vector    7  Occ=0.000000D+00  E=-2.628626D-02

 Vector    8  Occ=0.000000D+00  E=-1.342137D-02

 Vector    9  Occ=0.000000D+00  E= 2.986074D-01

 Vector   10  Occ=0.000000D+00  E= 3.795036D-01

 Vector   11  Occ=0.000000D+00  E= 6.122770D-01

 Vector   12  Occ=0.000000D+00  E= 7.722876D-01

 Vector   13  Occ=0.000000D+00  E= 7.913533D-01

 Vector   14  Occ=0.000000D+00  E= 8.570352D-01

 Vector   15  Occ=0.000000D+00  E= 8.863488D-01

       Multipole analysis of the density wrt the origin
       ------------------------------------------------

     L   x y z        total         open         nuclear
     -   - - -        -----         ----         -------
     0   0 0 0     -0.000000      0.000000     10.000000

     1   1 0 0      0.568183      0.000000     -0.000000
     1   0 1 0      0.157907      0.000000      0.000000
     1   0 0 1      0.000000      0.000000      0.000000

     2   2 0 0     -4.504941      0.000000      2.679864
     2   1 1 0     -0.774586      0.000000     -1.637132
     2   1 0 1     -0.000000      0.000000      0.000000
     2   0 2 0     -3.055660      0.000000     12.842549
     2   0 1 1     -0.000000      0.000000      0.000000

 CCSD total energy / hartree       =       -75.992445131911808
 Total times  cpu:       70.9s     wall:      105.2s
