============================== echo of input deck ==============================
 echo
 start H2O
 title "H2O"

 memory total 24 gb

 geometry units bohr
 symmetry c1
        O  0.00000000  0.00000000  0.00000000
        H  0.00000000  3.7053345  0.00000000
        H  1.72558000 -0.64860000  0.00000000
 end

 basis spherical
   * library cc-pVTZ
 end

 mcscf
   active  8
   actelec 10
   multiplicity 1
   maxiter 40
   vectors input h2o.mos
   vectors output h2o.mos
 end

 task mcscf

 scf
   vectors input h2o.mos
   vectors output h2o-trash.mos
   noscf
 end

 tce
   2eorb
   2emet 13
   ccsd
   maxiter 300
 end

 set tce:print_integrals T
 set tce:qorb 8
 set tce:qela 5
 set tce:qelb 5

# set tce:qducc T
# set tce:nactv 3
# set tce:nonhf T
# set tce:ducc_model 6

 set tce:printtol 0.02

 task tce
================================================================================

 Output coordinates in a.u. (scale by  1.000000000 to convert to a.u.)

  No.       Tag          Charge          X              Y              Z
 ---- ---------------- ---------- -------------- -------------- --------------
    1 O                    8.0000    -0.17255800    -0.30567345     0.00000000
    2 H                    1.0000    -0.17255800     3.39966105     0.00000000
    3 H                    1.0000     1.55302200    -0.95427345     0.00000000

 Vector    1  Occ=1.999991D+00  E=-2.060626D+01  Symmetry=a

 Vector    2  Occ=1.998388D+00  E=-1.301968D+00  Symmetry=a

 Vector    3  Occ=1.983594D+00  E=-6.671624D-01  Symmetry=a

 Vector    4  Occ=1.974192D+00  E=-5.424875D-01  Symmetry=a

 Vector    5  Occ=1.626153D+00  E=-4.343835D-01  Symmetry=a

 Vector    6  Occ=3.748747D-01  E=-1.340823D-01  Symmetry=a

 Vector    7  Occ=2.680621D-02  E=-2.628232D-02  Symmetry=a

 Vector    8  Occ=1.600118D-02  E=-1.337242D-02  Symmetry=a

 Vector    9  Occ=0.000000D+00  E= 2.974908D-01  Symmetry=a

 Vector   10  Occ=0.000000D+00  E= 3.814363D-01  Symmetry=a

 Vector   11  Occ=0.000000D+00  E= 6.128907D-01  Symmetry=a

 Vector   12  Occ=0.000000D+00  E= 7.721748D-01  Symmetry=a

 Vector   13  Occ=0.000000D+00  E= 7.889448D-01  Symmetry=a

 Vector   14  Occ=0.000000D+00  E= 8.515851D-01  Symmetry=a

 Vector   15  Occ=0.000000D+00  E= 8.832148D-01  Symmetry=a

 Vector   16  Occ=0.000000D+00  E= 9.279259D-01  Symmetry=a

 Vector   17  Occ=0.000000D+00  E= 9.687364D-01  Symmetry=a

 Vector   18  Occ=0.000000D+00  E= 1.321446D+00  Symmetry=a

         Total SCF energy =    -75.814949484262

 Vector    2  Occ=2.000000D+00  E=-1.301968D+00

 Vector    3  Occ=2.000000D+00  E=-6.671624D-01

 Vector    4  Occ=2.000000D+00  E=-5.424875D-01

 Vector    5  Occ=2.000000D+00  E=-4.343835D-01

 Vector    6  Occ=0.000000D+00  E=-1.340823D-01

 Vector    7  Occ=0.000000D+00  E=-2.628232D-02

 Vector    8  Occ=0.000000D+00  E=-1.337242D-02

 Vector    9  Occ=0.000000D+00  E= 2.974908D-01

 Vector   10  Occ=0.000000D+00  E= 3.814363D-01

 Vector   11  Occ=0.000000D+00  E= 6.128907D-01

 Vector   12  Occ=0.000000D+00  E= 7.721748D-01

 Vector   13  Occ=0.000000D+00  E= 7.889448D-01

 Vector   14  Occ=0.000000D+00  E= 8.515851D-01

 Vector   15  Occ=0.000000D+00  E= 8.832148D-01

       Multipole analysis of the density wrt the origin
       ------------------------------------------------

     L   x y z        total         open         nuclear
     -   - - -        -----         ----         -------
     0   0 0 0      0.000000      0.000000     10.000000

     1   1 0 0      0.569435      0.000000     -0.000000
     1   0 1 0      0.141228      0.000000     -0.000000
     1   0 0 1      0.000000      0.000000      0.000000

     2   2 0 0     -4.506231      0.000000      2.679864
     2   1 1 0     -0.767113      0.000000     -1.646675
     2   1 0 1     -0.000000      0.000000      0.000000
     2   0 2 0     -3.084320      0.000000     13.215823
     2   0 1 1     -0.000000      0.000000      0.000000

 CCSD total energy / hartree       =       -75.990194419330692
 Total times  cpu:       72.1s     wall:      106.8s
