============================== echo of input deck ==============================
 echo
 start H2O
 title "H2O"

 memory total 24 gb

 geometry units bohr
 symmetry c1
        O  0.00000000  0.00000000  0.00000000
        H  0.00000000  3.7422035  0.00000000
        H  1.72558000 -0.64860000  0.00000000
 end

 basis spherical
   * library cc-pVTZ
 end

 mcscf
   active  8
   actelec 10
   multiplicity 1
   maxiter 40
   vectors input h2o.mos
   vectors output h2o.mos
 end

 task mcscf

 scf
   vectors input h2o.mos
   vectors output h2o-trash.mos
   noscf
 end

 tce
   2eorb
   2emet 13
   ccsd
   maxiter 300
 end

 set tce:print_integrals T
 set tce:qorb 8
 set tce:qela 5
 set tce:qelb 5

# set tce:qducc T
# set tce:nactv 3
# set tce:nonhf T
# set tce:ducc_model 6

 set tce:printtol 0.02

 task tce
================================================================================

 Output coordinates in a.u. (scale by  1.000000000 to convert to a.u.)

  No.       Tag          Charge          X              Y              Z
 ---- ---------------- ---------- -------------- -------------- --------------
    1 O                    8.0000    -0.17255800    -0.30936035     0.00000000
    2 H                    1.0000    -0.17255800     3.43284315     0.00000000
    3 H                    1.0000     1.55302200    -0.95796035     0.00000000

 Vector    1  Occ=1.999991D+00  E=-2.060682D+01  Symmetry=a

 Vector    2  Occ=1.998412D+00  E=-1.302395D+00  Symmetry=a

 Vector    3  Occ=1.983700D+00  E=-6.675987D-01  Symmetry=a

 Vector    4  Occ=1.974222D+00  E=-5.430626D-01  Symmetry=a

 Vector    5  Occ=1.612413D+00  E=-4.308915D-01  Symmetry=a

 Vector    6  Occ=3.885684D-01  E=-1.375063D-01  Symmetry=a

 Vector    7  Occ=2.678342D-02  E=-2.627668D-02  Symmetry=a

 Vector    8  Occ=1.590944D-02  E=-1.333701D-02  Symmetry=a

 Vector    9  Occ=0.000000D+00  E= 2.966449D-01  Symmetry=a

 Vector   10  Occ=0.000000D+00  E= 3.827298D-01  Symmetry=a

 Vector   11  Occ=0.000000D+00  E= 6.133863D-01  Symmetry=a

 Vector   12  Occ=0.000000D+00  E= 7.721727D-01  Symmetry=a

 Vector   13  Occ=0.000000D+00  E= 7.868789D-01  Symmetry=a

 Vector   14  Occ=0.000000D+00  E= 8.481651D-01  Symmetry=a

 Vector   15  Occ=0.000000D+00  E= 8.814009D-01  Symmetry=a

 Vector   16  Occ=0.000000D+00  E= 9.266104D-01  Symmetry=a

 Vector   17  Occ=0.000000D+00  E= 9.683351D-01  Symmetry=a

 Vector   18  Occ=0.000000D+00  E= 1.320116D+00  Symmetry=a

         Total SCF energy =    -75.810993838524

 Vector    2  Occ=2.000000D+00  E=-1.302395D+00

 Vector    3  Occ=2.000000D+00  E=-6.675987D-01

 Vector    4  Occ=2.000000D+00  E=-5.430626D-01

 Vector    5  Occ=2.000000D+00  E=-4.308915D-01

 Vector    6  Occ=0.000000D+00  E=-1.375063D-01

 Vector    7  Occ=0.000000D+00  E=-2.627668D-02

 Vector    8  Occ=0.000000D+00  E=-1.333701D-02

 Vector    9  Occ=0.000000D+00  E= 2.966449D-01

 Vector   10  Occ=0.000000D+00  E= 3.827298D-01

 Vector   11  Occ=0.000000D+00  E= 6.133863D-01

 Vector   12  Occ=0.000000D+00  E= 7.721727D-01

 Vector   13  Occ=0.000000D+00  E= 7.868789D-01

 Vector   14  Occ=0.000000D+00  E= 8.481651D-01

 Vector   15  Occ=0.000000D+00  E= 8.814009D-01

       Multipole analysis of the density wrt the origin
       ------------------------------------------------

     L   x y z        total         open         nuclear
     -   - - -        -----         ----         -------
     0   0 0 0     -0.000000      0.000000     10.000000

     1   1 0 0      0.570288      0.000000     -0.000000
     1   0 1 0      0.130334      0.000000     -0.000000
     1   0 0 1      0.000000      0.000000      0.000000

     2   2 0 0     -4.506816      0.000000      2.679864
     2   1 1 0     -0.762155      0.000000     -1.653037
     2   1 0 1     -0.000000      0.000000      0.000000
     2   0 2 0     -3.103839      0.000000     13.467731
     2   0 1 1     -0.000000      0.000000      0.000000

 CCSD total energy / hartree       =       -75.988789108105678
 Total times  cpu:       70.2s     wall:      105.4s
