============================== echo of input deck ==============================
 echo
 start H2O
 title "H2O"

 memory total 24 gb

 geometry units bohr
 symmetry c1
        O  0.00000000  0.00000000  0.00000000
        H  0.00000000  3.797507  0.00000000
        H  1.72558000 -0.64860000  0.00000000
 end

 basis spherical
   * library cc-pVTZ
 end

 mcscf
   active  8
   actelec 10
   multiplicity 1
   maxiter 40
   vectors input h2o.mos
   vectors output h2o.mos
 end

 task mcscf

 scf
   vectors input h2o.mos
   vectors output h2o-trash.mos
   noscf
 end

 tce
   2eorb
   2emet 13
   ccsd
   maxiter 300
 end

 set tce:print_integrals T
 set tce:qorb 8
 set tce:qela 5
 set tce:qelb 5

# set tce:qducc T
# set tce:nactv 3
# set tce:nonhf T
# set tce:ducc_model 6

 set tce:printtol 0.02

 task tce
================================================================================

 Output coordinates in a.u. (scale by  1.000000000 to convert to a.u.)

  No.       Tag          Charge          X              Y              Z
 ---- ---------------- ---------- -------------- -------------- --------------
    1 O                    8.0000    -0.17255800    -0.31489070     0.00000000
    2 H                    1.0000    -0.17255800     3.48261630     0.00000000
    3 H                    1.0000     1.55302200    -0.96349070     0.00000000

 Vector    1  Occ=1.999991D+00  E=-2.060754D+01  Symmetry=a

 Vector    2  Occ=1.998446D+00  E=-1.302976D+00  Symmetry=a

 Vector    3  Occ=1.983851D+00  E=-6.681786D-01  Symmetry=a

 Vector    4  Occ=1.974266D+00  E=-5.438342D-01  Symmetry=a

 Vector    5  Occ=1.591825D+00  E=-4.258575D-01  Symmetry=a

 Vector    6  Occ=4.090903D-01  E=-1.424958D-01  Symmetry=a

 Vector    7  Occ=2.675022D-02  E=-2.627146D-02  Symmetry=a

 Vector    8  Occ=1.577947D-02  E=-1.329302D-02  Symmetry=a

 Vector    9  Occ=0.000000D+00  E= 2.955706D-01  Symmetry=a

 Vector   10  Occ=0.000000D+00  E= 3.846033D-01  Symmetry=a

 Vector   11  Occ=0.000000D+00  E= 6.140657D-01  Symmetry=a

 Vector   12  Occ=0.000000D+00  E= 7.722555D-01  Symmetry=a

 Vector   13  Occ=0.000000D+00  E= 7.828848D-01  Symmetry=a

 Vector   14  Occ=0.000000D+00  E= 8.435030D-01  Symmetry=a

 Vector   15  Occ=0.000000D+00  E= 8.788331D-01  Symmetry=a

 Vector   16  Occ=0.000000D+00  E= 9.246272D-01  Symmetry=a

 Vector   17  Occ=0.000000D+00  E= 9.680485D-01  Symmetry=a

 Vector   18  Occ=0.000000D+00  E= 1.317663D+00  Symmetry=a

         Total SCF energy =    -75.805171962227

 Vector    2  Occ=2.000000D+00  E=-1.302976D+00

 Vector    3  Occ=2.000000D+00  E=-6.681786D-01

 Vector    4  Occ=2.000000D+00  E=-5.438342D-01

 Vector    5  Occ=2.000000D+00  E=-4.258575D-01

 Vector    6  Occ=0.000000D+00  E=-1.424958D-01

 Vector    7  Occ=0.000000D+00  E=-2.627146D-02

 Vector    8  Occ=0.000000D+00  E=-1.329302D-02

 Vector    9  Occ=0.000000D+00  E= 2.955706D-01

 Vector   10  Occ=0.000000D+00  E= 3.846033D-01

 Vector   11  Occ=0.000000D+00  E= 6.140657D-01

 Vector   12  Occ=0.000000D+00  E= 7.722555D-01

 Vector   13  Occ=0.000000D+00  E= 7.828848D-01

 Vector   14  Occ=0.000000D+00  E= 8.435030D-01

 Vector   15  Occ=0.000000D+00  E= 8.788331D-01

       Multipole analysis of the density wrt the origin
       ------------------------------------------------

     L   x y z        total         open         nuclear
     -   - - -        -----         ----         -------
     0   0 0 0     -0.000000      0.000000     10.000000

     1   1 0 0      0.571578      0.000000     -0.000000
     1   0 1 0      0.114425      0.000000     -0.000000
     1   0 0 1      0.000000      0.000000      0.000000

     2   2 0 0     -4.507408      0.000000      2.679864
     2   1 1 0     -0.754770      0.000000     -1.662580
     2   1 0 1     -0.000000      0.000000      0.000000
     2   0 2 0     -3.133361      0.000000     13.850180
     2   0 1 1     -0.000000      0.000000      0.000000

 CCSD total energy / hartree       =       -75.986816677807553
 Total times  cpu:       75.3s     wall:      111.4s
