============================== echo of input deck ==============================
 echo
 start H2O
 title "H2O"

 memory total 24 gb

 geometry units bohr
 symmetry c1
        O  0.00000000  0.00000000  0.00000000
        H  0.00000000  3.8159415  0.00000000
        H  1.72558000 -0.64860000  0.00000000
 end

 basis spherical
   * library cc-pVTZ
 end

 mcscf
   active  8
   actelec 10
   multiplicity 1
   maxiter 40
   vectors input h2o.mos
   vectors output h2o.mos
 end

 task mcscf

 scf
   vectors input h2o.mos
   vectors output h2o-trash.mos
   noscf
 end

 tce
   2eorb
   2emet 13
   ccsd
   maxiter 300
 end

 set tce:print_integrals T
 set tce:qorb 8
 set tce:qela 5
 set tce:qelb 5

# set tce:qducc T
# set tce:nactv 3
# set tce:nonhf T
# set tce:ducc_model 6

 set tce:printtol 0.02

 task tce
================================================================================

 Output coordinates in a.u. (scale by  1.000000000 to convert to a.u.)

  No.       Tag          Charge          X              Y              Z
 ---- ---------------- ---------- -------------- -------------- --------------
    1 O                    8.0000    -0.17255800    -0.31673415     0.00000000
    2 H                    1.0000    -0.17255800     3.49920735     0.00000000
    3 H                    1.0000     1.55302200    -0.96533415     0.00000000

 Vector    1  Occ=1.999991D+00  E=-2.060779D+01  Symmetry=a

 Vector    2  Occ=1.998457D+00  E=-1.303169D+00  Symmetry=a

 Vector    3  Occ=1.983900D+00  E=-6.683799D-01  Symmetry=a

 Vector    4  Occ=1.974281D+00  E=-5.440927D-01  Symmetry=a

 Vector    5  Occ=1.584970D+00  E=-4.241521D-01  Symmetry=a

 Vector    6  Occ=4.159238D-01  E=-1.441908D-01  Symmetry=a

 Vector    7  Occ=2.673906D-02  E=-2.626775D-02  Symmetry=a

 Vector    8  Occ=1.573764D-02  E=-1.327586D-02  Symmetry=a

 Vector    9  Occ=0.000000D+00  E= 2.951374D-01  Symmetry=a

 Vector   10  Occ=0.000000D+00  E= 3.852366D-01  Symmetry=a

 Vector   11  Occ=0.000000D+00  E= 6.143470D-01  Symmetry=a

 Vector   12  Occ=0.000000D+00  E= 7.723110D-01  Symmetry=a

 Vector   13  Occ=0.000000D+00  E= 7.813854D-01  Symmetry=a

 Vector   14  Occ=0.000000D+00  E= 8.421513D-01  Symmetry=a

 Vector   15  Occ=0.000000D+00  E= 8.780090D-01  Symmetry=a

 Vector   16  Occ=0.000000D+00  E= 9.239785D-01  Symmetry=a

 Vector   17  Occ=0.000000D+00  E= 9.680278D-01  Symmetry=a

 Vector   18  Occ=0.000000D+00  E= 1.316706D+00  Symmetry=a

         Total SCF energy =    -75.803259703840

 Vector    2  Occ=2.000000D+00  E=-1.303169D+00

 Vector    3  Occ=2.000000D+00  E=-6.683799D-01

 Vector    4  Occ=2.000000D+00  E=-5.440927D-01

 Vector    5  Occ=2.000000D+00  E=-4.241521D-01

 Vector    6  Occ=0.000000D+00  E=-1.441908D-01

 Vector    7  Occ=0.000000D+00  E=-2.626775D-02

 Vector    8  Occ=0.000000D+00  E=-1.327586D-02

 Vector    9  Occ=0.000000D+00  E= 2.951374D-01

 Vector   10  Occ=0.000000D+00  E= 3.852366D-01

 Vector   11  Occ=0.000000D+00  E= 6.143470D-01

 Vector   12  Occ=0.000000D+00  E= 7.723110D-01

 Vector   13  Occ=0.000000D+00  E= 7.813854D-01

 Vector   14  Occ=0.000000D+00  E= 8.421513D-01

 Vector   15  Occ=0.000000D+00  E= 8.780090D-01

       Multipole analysis of the density wrt the origin
       ------------------------------------------------

     L   x y z        total         open         nuclear
     -   - - -        -----         ----         -------
     0   0 0 0     -0.000000      0.000000     10.000000

     1   1 0 0      0.572014      0.000000     -0.000000
     1   0 1 0      0.109217      0.000000      0.000000
     1   0 0 1      0.000000      0.000000      0.000000

     2   2 0 0     -4.507496      0.000000      2.679864
     2   1 1 0     -0.752334      0.000000     -1.665761
     2   1 0 1     -0.000000      0.000000      0.000000
     2   0 2 0     -3.143333      0.000000     13.978886
     2   0 1 1     -0.000000      0.000000      0.000000

 CCSD total energy / hartree       =       -75.986193968176934
 Total times  cpu:       73.0s     wall:      107.4s
