============================== echo of input deck ==============================
 echo
 start H2O
 title "H2O"

 memory total 24 gb

 geometry units bohr
 symmetry c1
        O  0.00000000  0.00000000  0.00000000
        H  0.00000000  3.834376  0.00000000
        H  1.72558000 -0.64860000  0.00000000
 end

 basis spherical
   * library cc-pVTZ
 end

 mcscf
   active  8
   actelec 10
   multiplicity 1
   maxiter 40
   vectors input h2o.mos
   vectors output h2o.mos
 end

 task mcscf

 scf
   vectors input h2o.mos
   vectors output h2o-trash.mos
   noscf
 end

 tce
   2eorb
   2emet 13
   ccsd
   maxiter 300
 end

 set tce:print_integrals T
 set tce:qorb 8
 set tce:qela 5
 set tce:qelb 5

# set tce:qducc T
# set tce:nactv 3
# set tce:nonhf T
# set tce:ducc_model 6

 set tce:printtol 0.02

 task tce
================================================================================

 Output coordinates in a.u. (scale by  1.000000000 to convert to a.u.)

  No.       Tag          Charge          X              Y              Z
 ---- ---------------- ---------- -------------- -------------- --------------
    1 O                    8.0000    -0.17255800    -0.31857760     0.00000000
    2 H                    1.0000    -0.17255800     3.51579840     0.00000000
    3 H                    1.0000     1.55302200    -0.96717760     0.00000000

 Vector    1  Occ=1.999992D+00  E=-2.060800D+01  Symmetry=a

 Vector    2  Occ=1.998468D+00  E=-1.303349D+00  Symmetry=a

 Vector    3  Occ=1.983947D+00  E=-6.685624D-01  Symmetry=a

 Vector    4  Occ=1.974295D+00  E=-5.443314D-01  Symmetry=a

 Vector    5  Occ=1.578132D+00  E=-4.225009D-01  Symmetry=a

 Vector    6  Occ=4.227413D-01  E=-1.458412D-01  Symmetry=a

 Vector    7  Occ=2.672821D-02  E=-2.626532D-02  Symmetry=a

 Vector    8  Occ=1.569698D-02  E=-1.326140D-02  Symmetry=a

 Vector    9  Occ=0.000000D+00  E= 2.947683D-01  Symmetry=a

 Vector   10  Occ=0.000000D+00  E= 3.858532D-01  Symmetry=a

 Vector   11  Occ=0.000000D+00  E= 6.145977D-01  Symmetry=a

 Vector   12  Occ=0.000000D+00  E= 7.723745D-01  Symmetry=a

 Vector   13  Occ=0.000000D+00  E= 7.797523D-01  Symmetry=a

 Vector   14  Occ=0.000000D+00  E= 8.408735D-01  Symmetry=a

 Vector   15  Occ=0.000000D+00  E= 8.771791D-01  Symmetry=a

 Vector   16  Occ=0.000000D+00  E= 9.233247D-01  Symmetry=a

 Vector   17  Occ=0.000000D+00  E= 9.680461D-01  Symmetry=a

 Vector   18  Occ=0.000000D+00  E= 1.315690D+00  Symmetry=a

         Total SCF energy =    -75.801362618531

 Vector    2  Occ=2.000000D+00  E=-1.303349D+00

 Vector    3  Occ=2.000000D+00  E=-6.685624D-01

 Vector    4  Occ=2.000000D+00  E=-5.443314D-01

 Vector    5  Occ=2.000000D+00  E=-4.225009D-01

 Vector    6  Occ=0.000000D+00  E=-1.458412D-01

 Vector    7  Occ=0.000000D+00  E=-2.626532D-02

 Vector    8  Occ=0.000000D+00  E=-1.326140D-02

 Vector    9  Occ=0.000000D+00  E= 2.947683D-01

 Vector   10  Occ=0.000000D+00  E= 3.858532D-01

 Vector   11  Occ=0.000000D+00  E= 6.145977D-01

 Vector   12  Occ=0.000000D+00  E= 7.723745D-01

 Vector   13  Occ=0.000000D+00  E= 7.797523D-01

 Vector   14  Occ=0.000000D+00  E= 8.408735D-01

 Vector   15  Occ=0.000000D+00  E= 8.771791D-01

       Multipole analysis of the density wrt the origin
       ------------------------------------------------

     L   x y z        total         open         nuclear
     -   - - -        -----         ----         -------
     0   0 0 0     -0.000000      0.000000     10.000000

     1   1 0 0      0.572450      0.000000     -0.000000
     1   0 1 0      0.104077      0.000000      0.000000
     1   0 0 1      0.000000      0.000000      0.000000

     2   2 0 0     -4.507562      0.000000      2.679864
     2   1 1 0     -0.749907      0.000000     -1.668942
     2   1 0 1     -0.000000      0.000000      0.000000
     2   0 2 0     -3.153290      0.000000     14.108204
     2   0 1 1     -0.000000      0.000000      0.000000

 CCSD total energy / hartree       =       -75.985588020347734
 Total times  cpu:       72.0s     wall:      106.5s
