============================== echo of input deck ==============================
 echo
 start H2O
 title "H2O"

 memory total 24 gb

 geometry units bohr
 symmetry c1
        O  0.00000000  0.00000000  0.00000000
        H  0.00000000  3.871245  0.00000000
        H  1.72558000 -0.64860000  0.00000000
 end

 basis spherical
   * library cc-pVTZ
 end

 mcscf
   active  8
   actelec 10
   multiplicity 1
   maxiter 40
   vectors input h2o.mos
   vectors output h2o.mos
 end

 task mcscf

 scf
   vectors input h2o.mos
   vectors output h2o-trash.mos
   noscf
 end

 tce
   2eorb
   2emet 13
   ccsd
   maxiter 300
 end

 set tce:print_integrals T
 set tce:qorb 8
 set tce:qela 5
 set tce:qelb 5

# set tce:qducc T
# set tce:nactv 3
# set tce:nonhf T
# set tce:ducc_model 6

 set tce:printtol 0.02

 task tce
================================================================================

 Output coordinates in a.u. (scale by  1.000000000 to convert to a.u.)

  No.       Tag          Charge          X              Y              Z
 ---- ---------------- ---------- -------------- -------------- --------------
    1 O                    8.0000    -0.17255800    -0.32226450     0.00000000
    2 H                    1.0000    -0.17255800     3.54898050     0.00000000
    3 H                    1.0000     1.55302200    -0.97086450     0.00000000

 Vector    1  Occ=1.999992D+00  E=-2.060835D+01  Symmetry=a

 Vector    2  Occ=1.998489D+00  E=-1.303668D+00  Symmetry=a

 Vector    3  Occ=1.984039D+00  E=-6.688593D-01  Symmetry=a

 Vector    4  Occ=1.974324D+00  E=-5.447399D-01  Symmetry=a

 Vector    5  Occ=1.564495D+00  E=-4.193965D-01  Symmetry=a

 Vector    6  Occ=4.363370D-01  E=-1.489771D-01  Symmetry=a

 Vector    7  Occ=2.670655D-02  E=-2.626471D-02  Symmetry=a

 Vector    8  Occ=1.561807D-02  E=-1.324398D-02  Symmetry=a

 Vector    9  Occ=0.000000D+00  E= 2.943473D-01  Symmetry=a

 Vector   10  Occ=0.000000D+00  E= 3.870252D-01  Symmetry=a

 Vector   11  Occ=0.000000D+00  E= 6.149261D-01  Symmetry=a

 Vector   12  Occ=0.000000D+00  E= 7.725876D-01  Symmetry=a

 Vector   13  Occ=0.000000D+00  E= 7.760721D-01  Symmetry=a

 Vector   14  Occ=0.000000D+00  E= 8.385439D-01  Symmetry=a

 Vector   15  Occ=0.000000D+00  E= 8.754826D-01  Symmetry=a

 Vector   16  Occ=0.000000D+00  E= 9.219850D-01  Symmetry=a

 Vector   17  Occ=0.000000D+00  E= 9.681943D-01  Symmetry=a

 Vector   18  Occ=0.000000D+00  E= 1.313486D+00  Symmetry=a

         Total SCF energy =    -75.797611206433

 Vector    2  Occ=2.000000D+00  E=-1.303668D+00

 Vector    3  Occ=2.000000D+00  E=-6.688593D-01

 Vector    4  Occ=2.000000D+00  E=-5.447399D-01

 Vector    5  Occ=2.000000D+00  E=-4.193965D-01

 Vector    6  Occ=0.000000D+00  E=-1.489771D-01

 Vector    7  Occ=0.000000D+00  E=-2.626471D-02

 Vector    8  Occ=0.000000D+00  E=-1.324398D-02

 Vector    9  Occ=0.000000D+00  E= 2.943473D-01

 Vector   10  Occ=0.000000D+00  E= 3.870252D-01

 Vector   11  Occ=0.000000D+00  E= 6.149261D-01

 Vector   12  Occ=0.000000D+00  E= 7.725876D-01

 Vector   13  Occ=0.000000D+00  E= 7.760721D-01

 Vector   14  Occ=0.000000D+00  E= 8.385439D-01

 Vector   15  Occ=0.000000D+00  E= 8.754826D-01

       Multipole analysis of the density wrt the origin
       ------------------------------------------------

     L   x y z        total         open         nuclear
     -   - - -        -----         ----         -------
     0   0 0 0     -0.000000      0.000000     10.000000

     1   1 0 0      0.573331      0.000000     -0.000000
     1   0 1 0      0.093956      0.000000      0.000000
     1   0 0 1      0.000000      0.000000      0.000000

     2   2 0 0     -4.507554      0.000000      2.679864
     2   1 1 0     -0.745095      0.000000     -1.675304
     2   1 0 1     -0.000000      0.000000      0.000000
     2   0 2 0     -3.173320      0.000000     14.368676
     2   0 1 1     -0.000000      0.000000      0.000000

 CCSD total energy / hartree       =       -75.984425106146318
 Total times  cpu:       83.2s     wall:      118.2s
