============================== echo of input deck ==============================
 echo
 start H2O
 title "H2O"

 memory total 24 gb

 geometry units bohr
 symmetry c1
        O  0.00000000  0.00000000  0.00000000
        H  0.00000000  3.8896795  0.00000000
        H  1.72558000 -0.64860000  0.00000000
 end

 basis spherical
   * library cc-pVTZ
 end

 mcscf
   active  8
   actelec 10
   multiplicity 1
   maxiter 40
   vectors input h2o.mos
   vectors output h2o.mos
 end

 task mcscf

 scf
   vectors input h2o.mos
   vectors output h2o-trash.mos
   noscf
 end

 tce
   2eorb
   2emet 13
   ccsd
   maxiter 300
 end

 set tce:print_integrals T
 set tce:qorb 8
 set tce:qela 5
 set tce:qelb 5

# set tce:qducc T
# set tce:nactv 3
# set tce:nonhf T
# set tce:ducc_model 6

 set tce:printtol 0.02

 task tce
================================================================================

 Output coordinates in a.u. (scale by  1.000000000 to convert to a.u.)

  No.       Tag          Charge          X              Y              Z
 ---- ---------------- ---------- -------------- -------------- --------------
    1 O                    8.0000    -0.17255800    -0.32410795     0.00000000
    2 H                    1.0000    -0.17255800     3.56557155     0.00000000
    3 H                    1.0000     1.55302200    -0.97270795     0.00000000

 Vector    1  Occ=1.999992D+00  E=-2.060859D+01  Symmetry=a

 Vector    2  Occ=1.998499D+00  E=-1.303853D+00  Symmetry=a

 Vector    3  Occ=1.984083D+00  E=-6.690684D-01  Symmetry=a

 Vector    4  Occ=1.974337D+00  E=-5.449944D-01  Symmetry=a

 Vector    5  Occ=1.557716D+00  E=-4.176655D-01  Symmetry=a

 Vector    6  Occ=4.430956D-01  E=-1.507055D-01  Symmetry=a

 Vector    7  Occ=2.669647D-02  E=-2.625917D-02  Symmetry=a

 Vector    8  Occ=1.558061D-02  E=-1.322200D-02  Symmetry=a

 Vector    9  Occ=0.000000D+00  E= 2.937411D-01  Symmetry=a

 Vector   10  Occ=0.000000D+00  E= 3.876703D-01  Symmetry=a

 Vector   11  Occ=0.000000D+00  E= 6.153458D-01  Symmetry=a

 Vector   12  Occ=0.000000D+00  E= 7.726250D-01  Symmetry=a

 Vector   13  Occ=0.000000D+00  E= 7.742773D-01  Symmetry=a

 Vector   14  Occ=0.000000D+00  E= 8.375820D-01  Symmetry=a

 Vector   15  Occ=0.000000D+00  E= 8.746761D-01  Symmetry=a

 Vector   16  Occ=0.000000D+00  E= 9.213681D-01  Symmetry=a

 Vector   17  Occ=0.000000D+00  E= 9.683035D-01  Symmetry=a

 Vector   18  Occ=0.000000D+00  E= 1.312254D+00  Symmetry=a

         Total SCF energy =    -75.795758911840

 Vector    2  Occ=2.000000D+00  E=-1.303853D+00

 Vector    3  Occ=2.000000D+00  E=-6.690684D-01

 Vector    4  Occ=2.000000D+00  E=-5.449944D-01

 Vector    5  Occ=2.000000D+00  E=-4.176655D-01

 Vector    6  Occ=0.000000D+00  E=-1.507055D-01

 Vector    7  Occ=0.000000D+00  E=-2.625917D-02

 Vector    8  Occ=0.000000D+00  E=-1.322200D-02

 Vector    9  Occ=0.000000D+00  E= 2.937411D-01

 Vector   10  Occ=0.000000D+00  E= 3.876703D-01

 Vector   11  Occ=0.000000D+00  E= 6.153458D-01

 Vector   12  Occ=0.000000D+00  E= 7.726250D-01

 Vector   13  Occ=0.000000D+00  E= 7.742773D-01

 Vector   14  Occ=0.000000D+00  E= 8.375820D-01

 Vector   15  Occ=0.000000D+00  E= 8.746761D-01

       Multipole analysis of the density wrt the origin
       ------------------------------------------------

     L   x y z        total         open         nuclear
     -   - - -        -----         ----         -------
     0   0 0 0     -0.000000      0.000000     10.000000

     1   1 0 0      0.573761      0.000000     -0.000000
     1   0 1 0      0.089008      0.000000     -0.000000
     1   0 0 1      0.000000      0.000000      0.000000

     2   2 0 0     -4.507540      0.000000      2.679864
     2   1 1 0     -0.742708      0.000000     -1.678485
     2   1 0 1     -0.000000      0.000000      0.000000
     2   0 2 0     -3.183251      0.000000     14.499829
     2   0 1 1     -0.000000      0.000000      0.000000

 CCSD total energy / hartree       =       -75.983867345427015
 Total times  cpu:       76.1s     wall:      113.8s
