============================== echo of input deck ==============================
 echo
 start H2O
 title "H2O"

 memory total 24 gb

 geometry units bohr
 symmetry c1
        O  0.00000000  0.00000000  0.00000000
        H  0.00000000  3.944983  0.00000000
        H  1.72558000 -0.64860000  0.00000000
 end

 basis spherical
   * library cc-pVTZ
 end

 mcscf
   active  8
   actelec 10
   multiplicity 1
   maxiter 40
   vectors input h2o.mos
   vectors output h2o.mos
 end

 task mcscf

 scf
   vectors input h2o.mos
   vectors output h2o-trash.mos
   noscf
 end

 tce
   2eorb
   2emet 13
   ccsd
   maxiter 300
 end

 set tce:print_integrals T
 set tce:qorb 8
 set tce:qela 5
 set tce:qelb 5

# set tce:qducc T
# set tce:nactv 3
# set tce:nonhf T
# set tce:ducc_model 6

 set tce:printtol 0.02

 task tce
================================================================================

 Output coordinates in a.u. (scale by  1.000000000 to convert to a.u.)

  No.       Tag          Charge          X              Y              Z
 ---- ---------------- ---------- -------------- -------------- --------------
    1 O                    8.0000    -0.17255800    -0.32963830     0.00000000
    2 H                    1.0000    -0.17255800     3.61534470     0.00000000
    3 H                    1.0000     1.55302200    -0.97823830     0.00000000

 Vector    1  Occ=1.999992D+00  E=-2.060913D+01  Symmetry=a

 Vector    2  Occ=1.998530D+00  E=-1.304321D+00  Symmetry=a

 Vector    3  Occ=1.984209D+00  E=-6.695508D-01  Symmetry=a

 Vector    4  Occ=1.974377D+00  E=-5.456145D-01  Symmetry=a

 Vector    5  Occ=1.537508D+00  E=-4.128974D-01  Symmetry=a

 Vector    6  Occ=4.632457D-01  E=-1.555298D-01  Symmetry=a

 Vector    7  Occ=2.666617D-02  E=-2.625021D-02  Symmetry=a

 Vector    8  Occ=1.547253D-02  E=-1.318134D-02  Symmetry=a

 Vector    9  Occ=0.000000D+00  E= 2.926416D-01  Symmetry=a

 Vector   10  Occ=0.000000D+00  E= 3.894734D-01  Symmetry=a

 Vector   11  Occ=0.000000D+00  E= 6.161918D-01  Symmetry=a

 Vector   12  Occ=0.000000D+00  E= 7.681988D-01  Symmetry=a

 Vector   13  Occ=0.000000D+00  E= 7.729700D-01  Symmetry=a

 Vector   14  Occ=0.000000D+00  E= 8.350644D-01  Symmetry=a

 Vector   15  Occ=0.000000D+00  E= 8.721610D-01  Symmetry=a

 Vector   16  Occ=0.000000D+00  E= 9.194436D-01  Symmetry=a

 Vector   17  Occ=0.000000D+00  E= 9.688207D-01  Symmetry=a

 Vector   18  Occ=0.000000D+00  E= 1.308231D+00  Symmetry=a

         Total SCF energy =    -75.790283529121

 Vector    2  Occ=2.000000D+00  E=-1.304321D+00

 Vector    3  Occ=2.000000D+00  E=-6.695508D-01

 Vector    4  Occ=2.000000D+00  E=-5.456145D-01

 Vector    5  Occ=2.000000D+00  E=-4.128974D-01

 Vector    6  Occ=0.000000D+00  E=-1.555298D-01

 Vector    7  Occ=0.000000D+00  E=-2.625021D-02

 Vector    8  Occ=0.000000D+00  E=-1.318134D-02

 Vector    9  Occ=0.000000D+00  E= 2.926416D-01

 Vector   10  Occ=0.000000D+00  E= 3.894734D-01

 Vector   11  Occ=0.000000D+00  E= 6.161918D-01

 Vector   12  Occ=0.000000D+00  E= 7.681988D-01

 Vector   13  Occ=0.000000D+00  E= 7.729700D-01

 Vector   14  Occ=0.000000D+00  E= 8.350644D-01

 Vector   15  Occ=0.000000D+00  E= 8.721610D-01

       Multipole analysis of the density wrt the origin
       ------------------------------------------------

     L   x y z        total         open         nuclear
     -   - - -        -----         ----         -------
     0   0 0 0     -0.000000      0.000000     10.000000

     1   1 0 0      0.575062      0.000000     -0.000000
     1   0 1 0      0.074482      0.000000      0.000000
     1   0 0 1      0.000000      0.000000      0.000000

     2   2 0 0     -4.507156      0.000000      2.679864
     2   1 1 0     -0.735719      0.000000     -1.688028
     2   1 0 1     -0.000000      0.000000      0.000000
     2   0 2 0     -3.213197      0.000000     14.896959
     2   0 1 1     -0.000000      0.000000      0.000000

 CCSD total energy / hartree       =       -75.982285138591436
 Total times  cpu:       72.0s     wall:      106.9s
