============================== echo of input deck ==============================
 echo
 start H2O
 title "H2O"

 memory total 24 gb

 geometry units bohr
 symmetry c1
        O  0.00000000  0.00000000  0.00000000
        H  0.00000000  4.05559  0.00000000
        H  1.72558000 -0.64860000  0.00000000
 end

 basis spherical
   * library cc-pVTZ
 end

 mcscf
   active  8
   actelec 10
   multiplicity 1
   maxiter 40
   vectors input h2o.mos
   vectors output h2o.mos
 end

 task mcscf

 scf
   vectors input h2o.mos
   vectors output h2o-trash.mos
   noscf
 end

 tce
   2eorb
   2emet 13
   ccsd
   maxiter 300
 end

 set tce:print_integrals T
 set tce:qorb 8
 set tce:qela 5
 set tce:qelb 5

# set tce:qducc T
# set tce:nactv 3
# set tce:nonhf T
# set tce:ducc_model 6

 set tce:printtol 0.02

 task tce
================================================================================

 Output coordinates in a.u. (scale by  1.000000000 to convert to a.u.)

  No.       Tag          Charge          X              Y              Z
 ---- ---------------- ---------- -------------- -------------- --------------
    1 O                    8.0000    -0.17255800    -0.34069900     0.00000000
    2 H                    1.0000    -0.17255800     3.71489100     0.00000000
    3 H                    1.0000     1.55302200    -0.98929900     0.00000000

 Vector    1  Occ=1.999992D+00  E=-2.060992D+01  Symmetry=a

 Vector    2  Occ=1.998586D+00  E=-1.305101D+00  Symmetry=a

 Vector    3  Occ=1.984437D+00  E=-6.703268D-01  Symmetry=a

 Vector    4  Occ=1.974452D+00  E=-5.466272D-01  Symmetry=a

 Vector    5  Occ=1.497899D+00  E=-4.039595D-01  Symmetry=a

 Vector    6  Occ=5.027478D-01  E=-1.646838D-01  Symmetry=a

 Vector    7  Occ=2.660869D-02  E=-2.623754D-02  Symmetry=a

 Vector    8  Occ=1.527788D-02  E=-1.311956D-02  Symmetry=a

 Vector    9  Occ=0.000000D+00  E= 2.908778D-01  Symmetry=a

 Vector   10  Occ=0.000000D+00  E= 3.929334D-01  Symmetry=a

 Vector   11  Occ=0.000000D+00  E= 6.178021D-01  Symmetry=a

 Vector   12  Occ=0.000000D+00  E= 7.547277D-01  Symmetry=a

 Vector   13  Occ=0.000000D+00  E= 7.739083D-01  Symmetry=a

 Vector   14  Occ=0.000000D+00  E= 8.316666D-01  Symmetry=a

 Vector   15  Occ=0.000000D+00  E= 8.669986D-01  Symmetry=a

 Vector   16  Occ=0.000000D+00  E= 9.156343D-01  Symmetry=a

 Vector   17  Occ=0.000000D+00  E= 9.705024D-01  Symmetry=a

 Vector   18  Occ=0.000000D+00  E= 1.298516D+00  Symmetry=a

         Total SCF energy =    -75.779722259178

 Vector    2  Occ=2.000000D+00  E=-1.305101D+00

 Vector    3  Occ=2.000000D+00  E=-6.703268D-01

 Vector    4  Occ=2.000000D+00  E=-5.466272D-01

 Vector    5  Occ=2.000000D+00  E=-4.039595D-01

 Vector    6  Occ=0.000000D+00  E=-1.646838D-01

 Vector    7  Occ=0.000000D+00  E=-2.623754D-02

 Vector    8  Occ=0.000000D+00  E=-1.311956D-02

 Vector    9  Occ=0.000000D+00  E= 2.908778D-01

 Vector   10  Occ=0.000000D+00  E= 3.929334D-01

 Vector   11  Occ=0.000000D+00  E= 6.178021D-01

 Vector   12  Occ=0.000000D+00  E= 7.547277D-01

 Vector   13  Occ=0.000000D+00  E= 7.739083D-01

 Vector   14  Occ=0.000000D+00  E= 8.316666D-01

 Vector   15  Occ=0.000000D+00  E= 8.669986D-01

       Multipole analysis of the density wrt the origin
       ------------------------------------------------

     L   x y z        total         open         nuclear
     -   - - -        -----         ----         -------
     0   0 0 0     -0.000000      0.000000     10.000000

     1   1 0 0      0.577707      0.000000     -0.000000
     1   0 1 0      0.046957      0.000000     -0.000000
     1   0 0 1      0.000000      0.000000      0.000000

     2   2 0 0     -4.505599      0.000000      2.679864
     2   1 1 0     -0.722136      0.000000     -1.707115
     2   1 0 1     -0.000000      0.000000      0.000000
     2   0 2 0     -3.273278      0.000000     15.707734
     2   0 1 1     -0.000000      0.000000      0.000000

 CCSD total energy / hartree       =       -75.979499960012205
 Total times  cpu:       91.4s     wall:      129.9s
