============================== echo of input deck ==============================
 echo
 start H2O
 title "H2O"

 memory total 24 gb

 geometry units bohr
 symmetry c1
        O  0.00000000  0.00000000  0.00000000
        H  0.00000000  4.0740245  0.00000000
        H  1.72558000 -0.64860000  0.00000000
 end

 basis spherical
   * library cc-pVTZ
 end

 mcscf
   active  8
   actelec 10
   multiplicity 1
   maxiter 40
   vectors input h2o.mos
   vectors output h2o.mos
 end

 task mcscf

 scf
   vectors input h2o.mos
   vectors output h2o-trash.mos
   noscf
 end

 tce
   2eorb
   2emet 13
   ccsd
   maxiter 300
 end

 set tce:print_integrals T
 set tce:qorb 8
 set tce:qela 5
 set tce:qelb 5

# set tce:qducc T
# set tce:nactv 3
# set tce:nonhf T
# set tce:ducc_model 6

 set tce:printtol 0.02

 task tce
================================================================================

 Output coordinates in a.u. (scale by  1.000000000 to convert to a.u.)

  No.       Tag          Charge          X              Y              Z
 ---- ---------------- ---------- -------------- -------------- --------------
    1 O                    8.0000    -0.17255800    -0.34254245     0.00000000
    2 H                    1.0000    -0.17255800     3.73148205     0.00000000
    3 H                    1.0000     1.55302200    -0.99114245     0.00000000

 Vector    1  Occ=1.999992D+00  E=-2.061007D+01  Symmetry=a

 Vector    2  Occ=1.998595D+00  E=-1.305230D+00  Symmetry=a

 Vector    3  Occ=1.984472D+00  E=-6.704743D-01  Symmetry=a

 Vector    4  Occ=1.974464D+00  E=-5.468061D-01  Symmetry=a

 Vector    5  Occ=1.491422D+00  E=-4.024243D-01  Symmetry=a

 Vector    6  Occ=5.092083D-01  E=-1.662503D-01  Symmetry=a

 Vector    7  Occ=2.659941D-02  E=-2.623243D-02  Symmetry=a

 Vector    8  Occ=1.524784D-02  E=-1.310248D-02  Symmetry=a

 Vector    9  Occ=0.000000D+00  E= 2.903682D-01  Symmetry=a

 Vector   10  Occ=0.000000D+00  E= 3.935272D-01  Symmetry=a

 Vector   11  Occ=0.000000D+00  E= 6.182255D-01  Symmetry=a

 Vector   12  Occ=0.000000D+00  E= 7.525208D-01  Symmetry=a

 Vector   13  Occ=0.000000D+00  E= 7.740484D-01  Symmetry=a

 Vector   14  Occ=0.000000D+00  E= 8.312647D-01  Symmetry=a

 Vector   15  Occ=0.000000D+00  E= 8.661634D-01  Symmetry=a

 Vector   16  Occ=0.000000D+00  E= 9.150363D-01  Symmetry=a

 Vector   17  Occ=0.000000D+00  E= 9.708263D-01  Symmetry=a

 Vector   18  Occ=0.000000D+00  E= 1.296687D+00  Symmetry=a

         Total SCF energy =    -75.778010084361

 Vector    2  Occ=2.000000D+00  E=-1.305230D+00

 Vector    3  Occ=2.000000D+00  E=-6.704743D-01

 Vector    4  Occ=2.000000D+00  E=-5.468061D-01

 Vector    5  Occ=2.000000D+00  E=-4.024243D-01

 Vector    6  Occ=0.000000D+00  E=-1.662503D-01

 Vector    7  Occ=0.000000D+00  E=-2.623243D-02

 Vector    8  Occ=0.000000D+00  E=-1.310248D-02

 Vector    9  Occ=0.000000D+00  E= 2.903682D-01

 Vector   10  Occ=0.000000D+00  E= 3.935272D-01

 Vector   11  Occ=0.000000D+00  E= 6.182255D-01

 Vector   12  Occ=0.000000D+00  E= 7.525208D-01

 Vector   13  Occ=0.000000D+00  E= 7.740484D-01

 Vector   14  Occ=0.000000D+00  E= 8.312647D-01

 Vector   15  Occ=0.000000D+00  E= 8.661634D-01

       Multipole analysis of the density wrt the origin
       ------------------------------------------------

     L   x y z        total         open         nuclear
     -   - - -        -----         ----         -------
     0   0 0 0     -0.000000      0.000000     10.000000

     1   1 0 0      0.578145      0.000000     -0.000000
     1   0 1 0      0.042563      0.000000      0.000000
     1   0 0 1      0.000000      0.000000      0.000000

     2   2 0 0     -4.505195      0.000000      2.679864
     2   1 1 0     -0.719973      0.000000     -1.710296
     2   1 0 1     -0.000000      0.000000      0.000000
     2   0 2 0     -3.283300      0.000000     15.845004
     2   0 1 1     -0.000000      0.000000      0.000000

 CCSD total energy / hartree       =       -75.979081132765060
 Total times  cpu:       79.2s     wall:      118.0s
