============================== echo of input deck ==============================
 echo
 start H2O
 title "H2O"

 memory total 24 gb

 geometry units bohr
 symmetry c1
        O  0.00000000  0.00000000  0.00000000
        H  0.00000000  4.092459  0.00000000
        H  1.72558000 -0.64860000  0.00000000
 end

 basis spherical
   * library cc-pVTZ
 end

 mcscf
   active  8
   actelec 10
   multiplicity 1
   maxiter 40
   vectors input h2o.mos
   vectors output h2o.mos
 end

 task mcscf

 scf
   vectors input h2o.mos
   vectors output h2o-trash.mos
   noscf
 end

 tce
   2eorb
   2emet 13
   ccsd
   maxiter 300
 end

 set tce:print_integrals T
 set tce:qorb 8
 set tce:qela 5
 set tce:qelb 5

# set tce:qducc T
# set tce:nactv 3
# set tce:nonhf T
# set tce:ducc_model 6

 set tce:printtol 0.02

 task tce
================================================================================

 Output coordinates in a.u. (scale by  1.000000000 to convert to a.u.)

  No.       Tag          Charge          X              Y              Z
 ---- ---------------- ---------- -------------- -------------- --------------
    1 O                    8.0000    -0.17255800    -0.34438590     0.00000000
    2 H                    1.0000    -0.17255800     3.74807310     0.00000000
    3 H                    1.0000     1.55302200    -0.99298590     0.00000000

 Vector    1  Occ=1.999992D+00  E=-2.061019D+01  Symmetry=a

 Vector    2  Occ=1.998603D+00  E=-1.305347D+00  Symmetry=a

 Vector    3  Occ=1.984506D+00  E=-6.705975D-01  Symmetry=a

 Vector    4  Occ=1.974475D+00  E=-5.469614D-01  Symmetry=a

 Vector    5  Occ=1.485004D+00  E=-4.009653D-01  Symmetry=a

 Vector    6  Occ=5.156092D-01  E=-1.677504D-01  Symmetry=a

 Vector    7  Occ=2.659092D-02  E=-2.622860D-02  Symmetry=a

 Vector    8  Occ=1.521940D-02  E=-1.309050D-02  Symmetry=a

 Vector    9  Occ=0.000000D+00  E= 2.900095D-01  Symmetry=a

 Vector   10  Occ=0.000000D+00  E= 3.940997D-01  Symmetry=a

 Vector   11  Occ=0.000000D+00  E= 6.185573D-01  Symmetry=a

 Vector   12  Occ=0.000000D+00  E= 7.502518D-01  Symmetry=a

 Vector   13  Occ=0.000000D+00  E= 7.742350D-01  Symmetry=a

 Vector   14  Occ=0.000000D+00  E= 8.308863D-01  Symmetry=a

 Vector   15  Occ=0.000000D+00  E= 8.653141D-01  Symmetry=a

 Vector   16  Occ=0.000000D+00  E= 9.144246D-01  Symmetry=a

 Vector   17  Occ=0.000000D+00  E= 9.711757D-01  Symmetry=a

 Vector   18  Occ=0.000000D+00  E= 1.294805D+00  Symmetry=a

         Total SCF energy =    -75.776312362814

 Vector    2  Occ=2.000000D+00  E=-1.305347D+00

 Vector    3  Occ=2.000000D+00  E=-6.705975D-01

 Vector    4  Occ=2.000000D+00  E=-5.469614D-01

 Vector    5  Occ=2.000000D+00  E=-4.009653D-01

 Vector    6  Occ=0.000000D+00  E=-1.677504D-01

 Vector    7  Occ=0.000000D+00  E=-2.622860D-02

 Vector    8  Occ=0.000000D+00  E=-1.309050D-02

 Vector    9  Occ=0.000000D+00  E= 2.900095D-01

 Vector   10  Occ=0.000000D+00  E= 3.940997D-01

 Vector   11  Occ=0.000000D+00  E= 6.185573D-01

 Vector   12  Occ=0.000000D+00  E= 7.502518D-01

 Vector   13  Occ=0.000000D+00  E= 7.742350D-01

 Vector   14  Occ=0.000000D+00  E= 8.308863D-01

 Vector   15  Occ=0.000000D+00  E= 8.653141D-01

       Multipole analysis of the density wrt the origin
       ------------------------------------------------

     L   x y z        total         open         nuclear
     -   - - -        -----         ----         -------
     0   0 0 0     -0.000000      0.000000     10.000000

     1   1 0 0      0.578567      0.000000     -0.000000
     1   0 1 0      0.038264      0.000000      0.000000
     1   0 0 1      0.000000      0.000000      0.000000

     2   2 0 0     -4.504789      0.000000      2.679864
     2   1 1 0     -0.717870      0.000000     -1.713477
     2   1 0 1     -0.000000      0.000000      0.000000
     2   0 2 0     -3.293121      0.000000     15.982886
     2   0 1 1     -0.000000      0.000000      0.000000

 CCSD total energy / hartree       =       -75.978674370197382
 Total times  cpu:       78.4s     wall:      115.8s
