============================== echo of input deck ==============================
 echo
 start H2O
 title "H2O"

 memory total 24 gb

 geometry units bohr
 symmetry c1
        O  0.00000000  0.00000000  0.00000000
        H  0.00000000  4.1108935  0.00000000
        H  1.72558000 -0.64860000  0.00000000
 end

 basis spherical
   * library cc-pVTZ
 end

 mcscf
   active  8
   actelec 10
   multiplicity 1
   maxiter 40
   vectors input h2o.mos
   vectors output h2o.mos
 end

 task mcscf

 scf
   vectors input h2o.mos
   vectors output h2o-trash.mos
   noscf
 end

 tce
   2eorb
   2emet 13
   ccsd
   maxiter 300
 end

 set tce:print_integrals T
 set tce:qorb 8
 set tce:qela 5
 set tce:qelb 5

# set tce:qducc T
# set tce:nactv 3
# set tce:nonhf T
# set tce:ducc_model 6

 set tce:printtol 0.02

 task tce
================================================================================

 Output coordinates in a.u. (scale by  1.000000000 to convert to a.u.)

  No.       Tag          Charge          X              Y              Z
 ---- ---------------- ---------- -------------- -------------- --------------
    1 O                    8.0000    -0.17255800    -0.34622935     0.00000000
    2 H                    1.0000    -0.17255800     3.76466415     0.00000000
    3 H                    1.0000     1.55302200    -0.99482935     0.00000000

 Vector    1  Occ=1.999992D+00  E=-2.061029D+01  Symmetry=a

 Vector    2  Occ=1.998612D+00  E=-1.305455D+00  Symmetry=a

 Vector    3  Occ=1.984539D+00  E=-6.707078D-01  Symmetry=a

 Vector    4  Occ=1.974486D+00  E=-5.471032D-01  Symmetry=a

 Vector    5  Occ=1.478621D+00  E=-3.995493D-01  Symmetry=a

 Vector    6  Occ=5.219764D-01  E=-1.692122D-01  Symmetry=a

 Vector    7  Occ=2.658227D-02  E=-2.622593D-02  Symmetry=a

 Vector    8  Occ=1.519132D-02  E=-1.308039D-02  Symmetry=a

 Vector    9  Occ=0.000000D+00  E= 2.896989D-01  Symmetry=a

 Vector   10  Occ=0.000000D+00  E= 3.946617D-01  Symmetry=a

 Vector   11  Occ=0.000000D+00  E= 6.188701D-01  Symmetry=a

 Vector   12  Occ=0.000000D+00  E= 7.479591D-01  Symmetry=a

 Vector   13  Occ=0.000000D+00  E= 7.744231D-01  Symmetry=a

 Vector   14  Occ=0.000000D+00  E= 8.305312D-01  Symmetry=a

 Vector   15  Occ=0.000000D+00  E= 8.644596D-01  Symmetry=a

 Vector   16  Occ=0.000000D+00  E= 9.138129D-01  Symmetry=a

 Vector   17  Occ=0.000000D+00  E= 9.715417D-01  Symmetry=a

 Vector   18  Occ=0.000000D+00  E= 1.292868D+00  Symmetry=a

         Total SCF energy =    -75.774629284491

 Vector    2  Occ=2.000000D+00  E=-1.305455D+00

 Vector    3  Occ=2.000000D+00  E=-6.707078D-01

 Vector    4  Occ=2.000000D+00  E=-5.471032D-01

 Vector    5  Occ=2.000000D+00  E=-3.995493D-01

 Vector    6  Occ=0.000000D+00  E=-1.692122D-01

 Vector    7  Occ=0.000000D+00  E=-2.622593D-02

 Vector    8  Occ=0.000000D+00  E=-1.308039D-02

 Vector    9  Occ=0.000000D+00  E= 2.896989D-01

 Vector   10  Occ=0.000000D+00  E= 3.946617D-01

 Vector   11  Occ=0.000000D+00  E= 6.188701D-01

 Vector   12  Occ=0.000000D+00  E= 7.479591D-01

 Vector   13  Occ=0.000000D+00  E= 7.744231D-01

 Vector   14  Occ=0.000000D+00  E= 8.305312D-01

 Vector   15  Occ=0.000000D+00  E= 8.644596D-01

       Multipole analysis of the density wrt the origin
       ------------------------------------------------

     L   x y z        total         open         nuclear
     -   - - -        -----         ----         -------
     0   0 0 0     -0.000000      0.000000     10.000000

     1   1 0 0      0.579001      0.000000     -0.000000
     1   0 1 0      0.034003      0.000000      0.000000
     1   0 0 1      0.000000      0.000000      0.000000

     2   2 0 0     -4.504368      0.000000      2.679864
     2   1 1 0     -0.715751      0.000000     -1.716658
     2   1 0 1     -0.000000      0.000000      0.000000
     2   0 2 0     -3.303016      0.000000     16.121380
     2   0 1 1     -0.000000      0.000000      0.000000

 CCSD total energy / hartree       =       -75.978279461216815
 Total times  cpu:       78.2s     wall:      116.0s
