============================== echo of input deck ==============================
 echo
 start H2O
 title "H2O"

 memory total 24 gb

 geometry units bohr
 symmetry c1
        O  0.00000000  0.00000000  0.00000000
        H  0.00000000  4.2583695  0.00000000
        H  1.72558000 -0.64860000  0.00000000
 end

 basis spherical
   * library cc-pVTZ
 end

 mcscf
   active  8
   actelec 10
   multiplicity 1
   maxiter 40
   vectors input h2o.mos
   vectors output h2o.mos
 end

 task mcscf

 scf
   vectors input h2o.mos
   vectors output h2o-trash.mos
   noscf
 end

 tce
   2eorb
   2emet 13
   ccsd
   maxiter 300
 end

 set tce:print_integrals T
 set tce:qorb 8
 set tce:qela 5
 set tce:qelb 5

# set tce:qducc T
# set tce:nactv 3
# set tce:nonhf T
# set tce:ducc_model 6

 set tce:printtol 0.02

 task tce
================================================================================

 Output coordinates in a.u. (scale by  1.000000000 to convert to a.u.)

  No.       Tag          Charge          X              Y              Z
 ---- ---------------- ---------- -------------- -------------- --------------
    1 O                    8.0000    -0.17255800    -0.36097695     0.00000000
    2 H                    1.0000    -0.17255800     3.89739255     0.00000000
    3 H                    1.0000     1.55302200    -1.00957695     0.00000000

 Vector    1  Occ=1.999992D+00  E=-2.061093D+01  Symmetry=a

 Vector    2  Occ=1.998673D+00  E=-1.306179D+00  Symmetry=a

 Vector    3  Occ=1.984774D+00  E=-6.714441D-01  Symmetry=a

 Vector    4  Occ=1.974568D+00  E=-5.480536D-01  Symmetry=a

 Vector    5  Occ=1.429282D+00  E=-3.888454D-01  Symmetry=a

 Vector    6  Occ=5.712011D-01  E=-1.803294D-01  Symmetry=a

 Vector    7  Occ=2.651886D-02  E=-2.620522D-02  Symmetry=a

 Vector    8  Occ=1.499173D-02  E=-1.300852D-02  Symmetry=a

 Vector    9  Occ=0.000000D+00  E= 2.873549D-01  Symmetry=a

 Vector   10  Occ=0.000000D+00  E= 3.990218D-01  Symmetry=a

 Vector   11  Occ=0.000000D+00  E= 6.214820D-01  Symmetry=a

 Vector   12  Occ=0.000000D+00  E= 7.301733D-01  Symmetry=a

 Vector   13  Occ=0.000000D+00  E= 7.760966D-01  Symmetry=a

 Vector   14  Occ=0.000000D+00  E= 8.282358D-01  Symmetry=a

 Vector   15  Occ=0.000000D+00  E= 8.578568D-01  Symmetry=a

 Vector   16  Occ=0.000000D+00  E= 9.090733D-01  Symmetry=a

 Vector   17  Occ=0.000000D+00  E= 9.747768D-01  Symmetry=a

 Vector   18  Occ=0.000000D+00  E= 1.275561D+00  Symmetry=a

         Total SCF energy =    -75.761662999501

 Vector    2  Occ=2.000000D+00  E=-1.306179D+00

 Vector    3  Occ=2.000000D+00  E=-6.714441D-01

 Vector    4  Occ=2.000000D+00  E=-5.480536D-01

 Vector    5  Occ=2.000000D+00  E=-3.888454D-01

 Vector    6  Occ=0.000000D+00  E=-1.803294D-01

 Vector    7  Occ=0.000000D+00  E=-2.620522D-02

 Vector    8  Occ=0.000000D+00  E=-1.300852D-02

 Vector    9  Occ=0.000000D+00  E= 2.873549D-01

 Vector   10  Occ=0.000000D+00  E= 3.990218D-01

 Vector   11  Occ=0.000000D+00  E= 6.214820D-01

 Vector   12  Occ=0.000000D+00  E= 7.301733D-01

 Vector   13  Occ=0.000000D+00  E= 7.760966D-01

 Vector   14  Occ=0.000000D+00  E= 8.282358D-01

 Vector   15  Occ=0.000000D+00  E= 8.578568D-01

       Multipole analysis of the density wrt the origin
       ------------------------------------------------

     L   x y z        total         open         nuclear
     -   - - -        -----         ----         -------
     0   0 0 0     -0.000000      0.000000     10.000000

     1   1 0 0      0.582416      0.000000     -0.000000
     1   0 1 0      0.001966      0.000000     -0.000000
     1   0 0 1      0.000000      0.000000      0.000000

     2   2 0 0     -4.500195      0.000000      2.679864
     2   1 1 0     -0.699749      0.000000     -1.742106
     2   1 0 1     -0.000000      0.000000      0.000000
     2   0 2 0     -3.381004      0.000000     17.251349
     2   0 1 1     -0.000000      0.000000      0.000000

 CCSD total energy / hartree       =       -75.975511011116865
 Total times  cpu:       78.2s     wall:      117.3s
