============================== echo of input deck ==============================
 echo
 start H2O
 title "H2O"

 memory total 24 gb

 geometry units bohr
 symmetry c1
        O  0.00000000  0.00000000  0.00000000
        H  0.00000000  4.4058455  0.00000000
        H  1.72558000 -0.64860000  0.00000000
 end

 basis spherical
   * library cc-pVTZ
 end

 mcscf
   active  8
   actelec 10
   multiplicity 1
   maxiter 40
   vectors input h2o.mos
   vectors output h2o.mos
 end

 task mcscf

 scf
   vectors input h2o.mos
   vectors output h2o-trash.mos
   noscf
 end

 tce
   2eorb
   2emet 13
   ccsd
   maxiter 300
 end

 set tce:print_integrals T
 set tce:qorb 8
 set tce:qela 5
 set tce:qelb 5

# set tce:qducc T
# set tce:nactv 3
# set tce:nonhf T
# set tce:ducc_model 6

 set tce:printtol 0.02

 task tce
================================================================================

 Output coordinates in a.u. (scale by  1.000000000 to convert to a.u.)

  No.       Tag          Charge          X              Y              Z
 ---- ---------------- ---------- -------------- -------------- --------------
    1 O                    8.0000    -0.17255800    -0.37572455     0.00000000
    2 H                    1.0000    -0.17255800     4.03012095     0.00000000
    3 H                    1.0000     1.55302200    -1.02432455     0.00000000

 Vector    1  Occ=1.999992D+00  E=-2.061130D+01  Symmetry=a

 Vector    2  Occ=1.998724D+00  E=-1.306698D+00  Symmetry=a

 Vector    3  Occ=1.984961D+00  E=-6.719756D-01  Symmetry=a

 Vector    4  Occ=1.974635D+00  E=-5.487432D-01  Symmetry=a

 Vector    5  Occ=1.383394D+00  E=-3.792115D-01  Symmetry=a

 Vector    6  Occ=6.169938D-01  E=-1.904127D-01  Symmetry=a

 Vector    7  Occ=2.646654D-02  E=-2.618407D-02  Symmetry=a

 Vector    8  Occ=1.483293D-02  E=-1.294779D-02  Symmetry=a

 Vector    9  Occ=0.000000D+00  E= 2.851541D-01  Symmetry=a

 Vector   10  Occ=0.000000D+00  E= 4.031107D-01  Symmetry=a

 Vector   11  Occ=0.000000D+00  E= 6.242670D-01  Symmetry=a

 Vector   12  Occ=0.000000D+00  E= 7.144455D-01  Symmetry=a

 Vector   13  Occ=0.000000D+00  E= 7.779794D-01  Symmetry=a

 Vector   14  Occ=0.000000D+00  E= 8.260409D-01  Symmetry=a

 Vector   15  Occ=0.000000D+00  E= 8.520989D-01  Symmetry=a

 Vector   16  Occ=0.000000D+00  E= 9.046632D-01  Symmetry=a

 Vector   17  Occ=0.000000D+00  E= 9.781486D-01  Symmetry=a

 Vector   18  Occ=0.000000D+00  E= 1.255597D+00  Symmetry=a

         Total SCF energy =    -75.749560468387

 Vector    2  Occ=2.000000D+00  E=-1.306698D+00

 Vector    3  Occ=2.000000D+00  E=-6.719756D-01

 Vector    4  Occ=2.000000D+00  E=-5.487432D-01

 Vector    5  Occ=2.000000D+00  E=-3.792115D-01

 Vector    6  Occ=0.000000D+00  E=-1.904127D-01

 Vector    7  Occ=0.000000D+00  E=-2.618407D-02

 Vector    8  Occ=0.000000D+00  E=-1.294779D-02

 Vector    9  Occ=0.000000D+00  E= 2.851541D-01

 Vector   10  Occ=0.000000D+00  E= 4.031107D-01

 Vector   11  Occ=0.000000D+00  E= 6.242670D-01

 Vector   12  Occ=0.000000D+00  E= 7.144455D-01

 Vector   13  Occ=0.000000D+00  E= 7.779794D-01

 Vector   14  Occ=0.000000D+00  E= 8.260409D-01

 Vector   15  Occ=0.000000D+00  E= 8.520989D-01

       Multipole analysis of the density wrt the origin
       ------------------------------------------------

     L   x y z        total         open         nuclear
     -   - - -        -----         ----         -------
     0   0 0 0     -0.000000      0.000000     10.000000

     1   1 0 0      0.585664      0.000000     -0.000000
     1   0 1 0     -0.026500      0.000000      0.000000
     1   0 0 1      0.000000      0.000000      0.000000

     2   2 0 0     -4.494865      0.000000      2.679864
     2   1 1 0     -0.685739      0.000000     -1.767554
     2   1 0 1     -0.000000      0.000000      0.000000
     2   0 2 0     -3.455967      0.000000     18.420467
     2   0 1 1     -0.000000      0.000000      0.000000

 CCSD total energy / hartree       =       -75.973341031299796
 Total times  cpu:       83.9s     wall:      122.7s
