============================== echo of input deck ==============================
 echo
 start H2O
 title "H2O"

 memory total 24 gb

 geometry units bohr
 symmetry c1
        O  0.00000000  0.00000000  0.00000000
        H  0.00000000  4.4427145  0.00000000
        H  1.72558000 -0.64860000  0.00000000
 end

 basis spherical
   * library cc-pVTZ
 end

 mcscf
   active  8
   actelec 10
   multiplicity 1
   maxiter 40
   vectors input h2o.mos
   vectors output h2o.mos
 end

 task mcscf

 scf
   vectors input h2o.mos
   vectors output h2o-trash.mos
   noscf
 end

 tce
   2eorb
   2emet 13
   ccsd
   maxiter 300
 end

 set tce:print_integrals T
 set tce:qorb 8
 set tce:qela 5
 set tce:qelb 5

# set tce:qducc T
# set tce:nactv 3
# set tce:nonhf T
# set tce:ducc_model 6

 set tce:printtol 0.02

 task tce
================================================================================

 Output coordinates in a.u. (scale by  1.000000000 to convert to a.u.)

  No.       Tag          Charge          X              Y              Z
 ---- ---------------- ---------- -------------- -------------- --------------
    1 O                    8.0000    -0.17255800    -0.37941145     0.00000000
    2 H                    1.0000    -0.17255800     4.06330305     0.00000000
    3 H                    1.0000     1.55302200    -1.02801145     0.00000000

 Vector    1  Occ=1.999992D+00  E=-2.061135D+01  Symmetry=a

 Vector    2  Occ=1.998736D+00  E=-1.306798D+00  Symmetry=a

 Vector    3  Occ=1.985002D+00  E=-6.720750D-01  Symmetry=a

 Vector    4  Occ=1.974649D+00  E=-5.488757D-01  Symmetry=a

 Vector    5  Occ=1.372504D+00  E=-3.769919D-01  Symmetry=a

 Vector    6  Occ=6.278634D-01  E=-1.927468D-01  Symmetry=a

 Vector    7  Occ=2.645521D-02  E=-2.617988D-02  Symmetry=a

 Vector    8  Occ=1.479891D-02  E=-1.293548D-02  Symmetry=a

 Vector    9  Occ=0.000000D+00  E= 2.846627D-01  Symmetry=a

 Vector   10  Occ=0.000000D+00  E= 4.040760D-01  Symmetry=a

 Vector   11  Occ=0.000000D+00  E= 6.249578D-01  Symmetry=a

 Vector   12  Occ=0.000000D+00  E= 7.109259D-01  Symmetry=a

 Vector   13  Occ=0.000000D+00  E= 7.784596D-01  Symmetry=a

 Vector   14  Occ=0.000000D+00  E= 8.254009D-01  Symmetry=a

 Vector   15  Occ=0.000000D+00  E= 8.508513D-01  Symmetry=a

 Vector   16  Occ=0.000000D+00  E= 9.036183D-01  Symmetry=a

 Vector   17  Occ=0.000000D+00  E= 9.789610D-01  Symmetry=a

 Vector   18  Occ=0.000000D+00  E= 1.250290D+00  Symmetry=a

         Total SCF energy =    -75.746666687487

 Vector    2  Occ=2.000000D+00  E=-1.306798D+00

 Vector    3  Occ=2.000000D+00  E=-6.720750D-01

 Vector    4  Occ=2.000000D+00  E=-5.488757D-01

 Vector    5  Occ=2.000000D+00  E=-3.769919D-01

 Vector    6  Occ=0.000000D+00  E=-1.927468D-01

 Vector    7  Occ=0.000000D+00  E=-2.617988D-02

 Vector    8  Occ=0.000000D+00  E=-1.293548D-02

 Vector    9  Occ=0.000000D+00  E= 2.846627D-01

 Vector   10  Occ=0.000000D+00  E= 4.040760D-01

 Vector   11  Occ=0.000000D+00  E= 6.249578D-01

 Vector   12  Occ=0.000000D+00  E= 7.109259D-01

 Vector   13  Occ=0.000000D+00  E= 7.784596D-01

 Vector   14  Occ=0.000000D+00  E= 8.254009D-01

 Vector   15  Occ=0.000000D+00  E= 8.508513D-01

       Multipole analysis of the density wrt the origin
       ------------------------------------------------

     L   x y z        total         open         nuclear
     -   - - -        -----         ----         -------
     0   0 0 0     -0.000000      0.000000     10.000000

     1   1 0 0      0.586442      0.000000     -0.000000
     1   0 1 0     -0.033082      0.000000      0.000000
     1   0 0 1      0.000000      0.000000      0.000000

     2   2 0 0     -4.493409      0.000000      2.679864
     2   1 1 0     -0.682564      0.000000     -1.773916
     2   1 0 1     -0.000000      0.000000      0.000000
     2   0 2 0     -3.474128      0.000000     18.718864
     2   0 1 1     -0.000000      0.000000      0.000000

 CCSD total energy / hartree       =       -75.972877635749711
 Total times  cpu:       72.6s     wall:      107.2s
