============================== echo of input deck ==============================
 echo
 start H2O
 title "H2O"

 memory total 24 gb

 geometry units bohr
 symmetry c1
        O  0.00000000  0.00000000  0.00000000
        H  0.00000000  4.461149  0.00000000
        H  1.72558000 -0.64860000  0.00000000
 end

 basis spherical
   * library cc-pVTZ
 end

 mcscf
   active  8
   actelec 10
   multiplicity 1
   maxiter 40
   vectors input h2o.mos
   vectors output h2o.mos
 end

 task mcscf

 scf
   vectors input h2o.mos
   vectors output h2o-trash.mos
   noscf
 end

 tce
   2eorb
   2emet 13
   ccsd
   maxiter 300
 end

 set tce:print_integrals T
 set tce:qorb 8
 set tce:qela 5
 set tce:qelb 5

# set tce:qducc T
# set tce:nactv 3
# set tce:nonhf T
# set tce:ducc_model 6

 set tce:printtol 0.02

 task tce
================================================================================

 Output coordinates in a.u. (scale by  1.000000000 to convert to a.u.)

  No.       Tag          Charge          X              Y              Z
 ---- ---------------- ---------- -------------- -------------- --------------
    1 O                    8.0000    -0.17255800    -0.38125490     0.00000000
    2 H                    1.0000    -0.17255800     4.07989410     0.00000000
    3 H                    1.0000     1.55302200    -1.02985490     0.00000000

 Vector    1  Occ=1.999992D+00  E=-2.061139D+01  Symmetry=a

 Vector    2  Occ=1.998741D+00  E=-1.306847D+00  Symmetry=a

 Vector    3  Occ=1.985021D+00  E=-6.721271D-01  Symmetry=a

 Vector    4  Occ=1.974657D+00  E=-5.489429D-01  Symmetry=a

 Vector    5  Occ=1.367136D+00  E=-3.758888D-01  Symmetry=a

 Vector    6  Occ=6.332208D-01  E=-1.939059D-01  Symmetry=a

 Vector    7  Occ=2.644935D-02  E=-2.617696D-02  Symmetry=a

 Vector    8  Occ=1.478217D-02  E=-1.292844D-02  Symmetry=a

 Vector    9  Occ=0.000000D+00  E= 2.843893D-01  Symmetry=a

 Vector   10  Occ=0.000000D+00  E= 4.045530D-01  Symmetry=a

 Vector   11  Occ=0.000000D+00  E= 6.253176D-01  Symmetry=a

 Vector   12  Occ=0.000000D+00  E= 7.092569D-01  Symmetry=a

 Vector   13  Occ=0.000000D+00  E= 7.787070D-01  Symmetry=a

 Vector   14  Occ=0.000000D+00  E= 8.250688D-01  Symmetry=a

 Vector   15  Occ=0.000000D+00  E= 8.502619D-01  Symmetry=a

 Vector   16  Occ=0.000000D+00  E= 9.031058D-01  Symmetry=a

 Vector   17  Occ=0.000000D+00  E= 9.793519D-01  Symmetry=a

 Vector   18  Occ=0.000000D+00  E= 1.247602D+00  Symmetry=a

         Total SCF energy =    -75.745239103072

 Vector    2  Occ=2.000000D+00  E=-1.306847D+00

 Vector    3  Occ=2.000000D+00  E=-6.721271D-01

 Vector    4  Occ=2.000000D+00  E=-5.489429D-01

 Vector    5  Occ=2.000000D+00  E=-3.758888D-01

 Vector    6  Occ=0.000000D+00  E=-1.939059D-01

 Vector    7  Occ=0.000000D+00  E=-2.617696D-02

 Vector    8  Occ=0.000000D+00  E=-1.292844D-02

 Vector    9  Occ=0.000000D+00  E= 2.843893D-01

 Vector   10  Occ=0.000000D+00  E= 4.045530D-01

 Vector   11  Occ=0.000000D+00  E= 6.253176D-01

 Vector   12  Occ=0.000000D+00  E= 7.092569D-01

 Vector   13  Occ=0.000000D+00  E= 7.787070D-01

 Vector   14  Occ=0.000000D+00  E= 8.250688D-01

 Vector   15  Occ=0.000000D+00  E= 8.502619D-01

       Multipole analysis of the density wrt the origin
       ------------------------------------------------

     L   x y z        total         open         nuclear
     -   - - -        -----         ----         -------
     0   0 0 0     -0.000000      0.000000     10.000000

     1   1 0 0      0.586838      0.000000     -0.000000
     1   0 1 0     -0.036319      0.000000      0.000000
     1   0 0 1      0.000000      0.000000      0.000000

     2   2 0 0     -4.492650      0.000000      2.679864
     2   1 1 0     -0.680990      0.000000     -1.777097
     2   1 0 1     -0.000000      0.000000      0.000000
     2   0 2 0     -3.483218      0.000000     18.868979
     2   0 1 1     -0.000000      0.000000      0.000000

 CCSD total energy / hartree       =       -75.972656647499846
 Total times  cpu:       72.1s     wall:      106.0s
