============================== echo of input deck ==============================
 echo
 start H2O
 title "H2O"

 memory total 24 gb

 geometry units bohr
 symmetry c1
        O  0.00000000  0.00000000  0.00000000
        H  0.00000000  4.756101  0.00000000
        H  1.72558000 -0.64860000  0.00000000
 end

 basis spherical
   * library cc-pVTZ
 end

 mcscf
   active  8
   actelec 10
   multiplicity 1
   maxiter 40
   vectors input h2o.mos
   vectors output h2o.mos
 end

 task mcscf

 scf
   vectors input h2o.mos
   vectors output h2o-trash.mos
   noscf
 end

 tce
   2eorb
   2emet 13
   ccsd
   maxiter 300
 end

 set tce:print_integrals T
 set tce:qorb 8
 set tce:qela 5
 set tce:qelb 5

# set tce:qducc T
# set tce:nactv 3
# set tce:nonhf T
# set tce:ducc_model 6

 set tce:printtol 0.02

 task tce
================================================================================

 Output coordinates in a.u. (scale by  1.000000000 to convert to a.u.)

  No.       Tag          Charge          X              Y              Z
 ---- ---------------- ---------- -------------- -------------- --------------
    1 O                    8.0000    -0.17255800    -0.41075010     0.00000000
    2 H                    1.0000    -0.17255800     4.34535090     0.00000000
    3 H                    1.0000     1.55302200    -1.05935010     0.00000000

 Vector    1  Occ=1.999992D+00  E=-2.061152D+01  Symmetry=a

 Vector    2  Occ=1.998812D+00  E=-1.307348D+00  Symmetry=a

 Vector    3  Occ=1.985266D+00  E=-6.726328D-01  Symmetry=a

 Vector    4  Occ=1.974748D+00  E=-5.496304D-01  Symmetry=a

 Vector    5  Occ=1.289439D+00  E=-3.606668D-01  Symmetry=a

 Vector    6  Occ=7.107890D-01  E=-2.099802D-01  Symmetry=a

 Vector    7  Occ=2.637765D-02  E=-2.614347D-02  Symmetry=a

 Vector    8  Occ=1.457666D-02  E=-1.284739D-02  Symmetry=a

 Vector    9  Occ=0.000000D+00  E= 2.806708D-01  Symmetry=a

 Vector   10  Occ=0.000000D+00  E= 4.110820D-01  Symmetry=a

 Vector   11  Occ=0.000000D+00  E= 6.306483D-01  Symmetry=a

 Vector   12  Occ=0.000000D+00  E= 6.894870D-01  Symmetry=a

 Vector   13  Occ=0.000000D+00  E= 7.825029D-01  Symmetry=a

 Vector   14  Occ=0.000000D+00  E= 8.179443D-01  Symmetry=a

 Vector   15  Occ=0.000000D+00  E= 8.438361D-01  Symmetry=a

 Vector   16  Occ=0.000000D+00  E= 8.958236D-01  Symmetry=a

 Vector   17  Occ=0.000000D+00  E= 9.840643D-01  Symmetry=a

 Vector   18  Occ=0.000000D+00  E= 1.202839D+00  Symmetry=a

         Total SCF energy =    -75.724101391303

 Vector    2  Occ=2.000000D+00  E=-1.307348D+00

 Vector    3  Occ=2.000000D+00  E=-6.726328D-01

 Vector    4  Occ=2.000000D+00  E=-5.496304D-01

 Vector    5  Occ=2.000000D+00  E=-3.606668D-01

 Vector    6  Occ=0.000000D+00  E=-2.099802D-01

 Vector    7  Occ=0.000000D+00  E=-2.614347D-02

 Vector    8  Occ=0.000000D+00  E=-1.284739D-02

 Vector    9  Occ=0.000000D+00  E= 2.806708D-01

 Vector   10  Occ=0.000000D+00  E= 4.110820D-01

 Vector   11  Occ=0.000000D+00  E= 6.306483D-01

 Vector   12  Occ=0.000000D+00  E= 6.894870D-01

 Vector   13  Occ=0.000000D+00  E= 7.825029D-01

 Vector   14  Occ=0.000000D+00  E= 8.179443D-01

 Vector   15  Occ=0.000000D+00  E= 8.438361D-01

       Multipole analysis of the density wrt the origin
       ------------------------------------------------

     L   x y z        total         open         nuclear
     -   - - -        -----         ----         -------
     0   0 0 0     -0.000000      0.000000     10.000000

     1   1 0 0      0.592608      0.000000     -0.000000
     1   0 1 0     -0.081518      0.000000     -0.000000
     1   0 0 1      0.000000      0.000000      0.000000

     2   2 0 0     -4.479673      0.000000      2.679864
     2   1 1 0     -0.660463      0.000000     -1.827993
     2   1 0 1     -0.000000      0.000000      0.000000
     2   0 2 0     -3.619345      0.000000     21.354022
     2   0 1 1     -0.000000      0.000000      0.000000

 CCSD total energy / hartree       =       -75.969931825719854
 Total times  cpu:      106.5s     wall:      157.2s
