============================== echo of input deck ==============================
 echo
 start H2O
 title "H2O"

 memory total 24 gb

 geometry units bohr
 symmetry c1
        O  0.00000000  0.00000000  0.00000000
        H  0.00000000  4.79297  0.00000000
        H  1.72558000 -0.64860000  0.00000000
 end

 basis spherical
   * library cc-pVTZ
 end

 mcscf
   active  8
   actelec 10
   multiplicity 1
   maxiter 40
   vectors input h2o.mos
   vectors output h2o.mos
 end

 task mcscf

 scf
   vectors input h2o.mos
   vectors output h2o-trash.mos
   noscf
 end

 tce
   2eorb
   2emet 13
   ccsd
   maxiter 300
 end

 set tce:print_integrals T
 set tce:qorb 8
 set tce:qela 5
 set tce:qelb 5

# set tce:qducc T
# set tce:nactv 3
# set tce:nonhf T
# set tce:ducc_model 6

 set tce:printtol 0.02

 task tce
================================================================================

 Output coordinates in a.u. (scale by  1.000000000 to convert to a.u.)

  No.       Tag          Charge          X              Y              Z
 ---- ---------------- ---------- -------------- -------------- --------------
    1 O                    8.0000    -0.17255800    -0.41443700     0.00000000
    2 H                    1.0000    -0.17255800     4.37853300     0.00000000
    3 H                    1.0000     1.55302200    -1.06303700     0.00000000

 Vector    1  Occ=1.999992D+00  E=-2.061150D+01  Symmetry=a

 Vector    2  Occ=1.998819D+00  E=-1.307381D+00  Symmetry=a

 Vector    3  Occ=1.985289D+00  E=-6.726602D-01  Symmetry=a

 Vector    4  Occ=1.974757D+00  E=-5.496747D-01  Symmetry=a

 Vector    5  Occ=1.280777D+00  E=-3.590774D-01  Symmetry=a

 Vector    6  Occ=7.194374D-01  E=-2.116675D-01  Symmetry=a

 Vector    7  Occ=2.637060D-02  E=-2.614164D-02  Symmetry=a

 Vector    8  Occ=1.455726D-02  E=-1.284133D-02  Symmetry=a

 Vector    9  Occ=0.000000D+00  E= 2.803033D-01  Symmetry=a

 Vector   10  Occ=0.000000D+00  E= 4.117212D-01  Symmetry=a

 Vector   11  Occ=0.000000D+00  E= 6.312383D-01  Symmetry=a

 Vector   12  Occ=0.000000D+00  E= 6.879690D-01  Symmetry=a

 Vector   13  Occ=0.000000D+00  E= 7.829324D-01  Symmetry=a

 Vector   14  Occ=0.000000D+00  E= 8.168656D-01  Symmetry=a

 Vector   15  Occ=0.000000D+00  E= 8.433766D-01  Symmetry=a

 Vector   16  Occ=0.000000D+00  E= 8.950445D-01  Symmetry=a

 Vector   17  Occ=0.000000D+00  E= 9.843550D-01  Symmetry=a

 Vector   18  Occ=0.000000D+00  E= 1.197235D+00  Symmetry=a

         Total SCF energy =    -75.721676753108

 Vector    2  Occ=2.000000D+00  E=-1.307381D+00

 Vector    3  Occ=2.000000D+00  E=-6.726602D-01

 Vector    4  Occ=2.000000D+00  E=-5.496747D-01

 Vector    5  Occ=2.000000D+00  E=-3.590774D-01

 Vector    6  Occ=0.000000D+00  E=-2.116675D-01

 Vector    7  Occ=0.000000D+00  E=-2.614164D-02

 Vector    8  Occ=0.000000D+00  E=-1.284133D-02

 Vector    9  Occ=0.000000D+00  E= 2.803033D-01

 Vector   10  Occ=0.000000D+00  E= 4.117212D-01

 Vector   11  Occ=0.000000D+00  E= 6.312383D-01

 Vector   12  Occ=0.000000D+00  E= 6.879690D-01

 Vector   13  Occ=0.000000D+00  E= 7.829324D-01

 Vector   14  Occ=0.000000D+00  E= 8.168656D-01

 Vector   15  Occ=0.000000D+00  E= 8.433766D-01

       Multipole analysis of the density wrt the origin
       ------------------------------------------------

     L   x y z        total         open         nuclear
     -   - - -        -----         ----         -------
     0   0 0 0     -0.000000      0.000000     10.000000

     1   1 0 0      0.593275      0.000000     -0.000000
     1   0 1 0     -0.086394      0.000000      0.000000
     1   0 0 1      0.000000      0.000000      0.000000

     2   2 0 0     -4.477982      0.000000      2.679864
     2   1 1 0     -0.658430      0.000000     -1.834355
     2   1 0 1     -0.000000      0.000000      0.000000
     2   0 2 0     -3.635203      0.000000     21.675663
     2   0 1 1     -0.000000      0.000000      0.000000

 CCSD total energy / hartree       =       -75.969680434571899
 Total times  cpu:      106.6s     wall:      149.7s
