============================== echo of input deck ==============================
 echo
 start H2O
 title "H2O"

 memory total 24 gb

 geometry units bohr
 symmetry c1
        O  0.00000000  0.00000000  0.00000000
        H  0.00000000  4.8114045  0.00000000
        H  1.72558000 -0.64860000  0.00000000
 end

 basis spherical
   * library cc-pVTZ
 end

 mcscf
   active  8
   actelec 10
   multiplicity 1
   maxiter 40
   vectors input h2o.mos
   vectors output h2o.mos
 end

 task mcscf

 scf
   vectors input h2o.mos
   vectors output h2o-trash.mos
   noscf
 end

 tce
   2eorb
   2emet 13
   ccsd
   maxiter 300
 end

 set tce:print_integrals T
 set tce:qorb 8
 set tce:qela 5
 set tce:qelb 5

# set tce:qducc T
# set tce:nactv 3
# set tce:nonhf T
# set tce:ducc_model 6

 set tce:printtol 0.02

 task tce
================================================================================

 Output coordinates in a.u. (scale by  1.000000000 to convert to a.u.)

  No.       Tag          Charge          X              Y              Z
 ---- ---------------- ---------- -------------- -------------- --------------
    1 O                    8.0000    -0.17255800    -0.41628045     0.00000000
    2 H                    1.0000    -0.17255800     4.39512405     0.00000000
    3 H                    1.0000     1.55302200    -1.06488045     0.00000000

 Vector    1  Occ=1.999992D+00  E=-2.061151D+01  Symmetry=a

 Vector    2  Occ=1.998823D+00  E=-1.307399D+00  Symmetry=a

 Vector    3  Occ=1.985300D+00  E=-6.726832D-01  Symmetry=a

 Vector    4  Occ=1.974761D+00  E=-5.497040D-01  Symmetry=a

 Vector    5  Occ=1.276539D+00  E=-3.582654D-01  Symmetry=a

 Vector    6  Occ=7.236698D-01  E=-2.125260D-01  Symmetry=a

 Vector    7  Occ=2.636755D-02  E=-2.613853D-02  Symmetry=a

 Vector    8  Occ=1.454828D-02  E=-1.283613D-02  Symmetry=a

 Vector    9  Occ=0.000000D+00  E= 2.800483D-01  Symmetry=a

 Vector   10  Occ=0.000000D+00  E= 4.120296D-01  Symmetry=a

 Vector   11  Occ=0.000000D+00  E= 6.315463D-01  Symmetry=a

 Vector   12  Occ=0.000000D+00  E= 6.873351D-01  Symmetry=a

 Vector   13  Occ=0.000000D+00  E= 7.831595D-01  Symmetry=a

 Vector   14  Occ=0.000000D+00  E= 8.163473D-01  Symmetry=a

 Vector   15  Occ=0.000000D+00  E= 8.431566D-01  Symmetry=a

 Vector   16  Occ=0.000000D+00  E= 8.946629D-01  Symmetry=a

 Vector   17  Occ=0.000000D+00  E= 9.844596D-01  Symmetry=a

 Vector   18  Occ=0.000000D+00  E= 1.194457D+00  Symmetry=a

         Total SCF energy =    -75.720481231541

 Vector    2  Occ=2.000000D+00  E=-1.307399D+00

 Vector    3  Occ=2.000000D+00  E=-6.726832D-01

 Vector    4  Occ=2.000000D+00  E=-5.497040D-01

 Vector    5  Occ=2.000000D+00  E=-3.582654D-01

 Vector    6  Occ=0.000000D+00  E=-2.125260D-01

 Vector    7  Occ=0.000000D+00  E=-2.613853D-02

 Vector    8  Occ=0.000000D+00  E=-1.283613D-02

 Vector    9  Occ=0.000000D+00  E= 2.800483D-01

 Vector   10  Occ=0.000000D+00  E= 4.120296D-01

 Vector   11  Occ=0.000000D+00  E= 6.315463D-01

 Vector   12  Occ=0.000000D+00  E= 6.873351D-01

 Vector   13  Occ=0.000000D+00  E= 7.831595D-01

 Vector   14  Occ=0.000000D+00  E= 8.163473D-01

 Vector   15  Occ=0.000000D+00  E= 8.431566D-01

       Multipole analysis of the density wrt the origin
       ------------------------------------------------

     L   x y z        total         open         nuclear
     -   - - -        -----         ----         -------
     0   0 0 0     -0.000000      0.000000     10.000000

     1   1 0 0      0.593588      0.000000     -0.000000
     1   0 1 0     -0.088763      0.000000     -0.000000
     1   0 0 1      0.000000      0.000000      0.000000

     2   2 0 0     -4.477138      0.000000      2.679864
     2   1 1 0     -0.657507      0.000000     -1.837536
     2   1 0 1     -0.000000      0.000000      0.000000
     2   0 2 0     -3.643057      0.000000     21.837401
     2   0 1 1     -0.000000      0.000000      0.000000

 CCSD total energy / hartree       =       -75.969560816379484
 Total times  cpu:       90.4s     wall:      132.4s
