============================== echo of input deck ==============================
 echo
 start H2O
 title "H2O"

 memory total 24 gb

 geometry units bohr
 symmetry c1
        O  0.00000000  0.00000000  0.00000000
        H  0.00000000  5.235398  0.00000000
        H  1.72558000 -0.64860000  0.00000000
 end

 basis spherical
   * library cc-pVTZ
 end

 mcscf
   active  8
   actelec 10
   multiplicity 1
   maxiter 40
   vectors input h2o.mos
   vectors output h2o.mos
 end

 task mcscf

 scf
   vectors input h2o.mos
   vectors output h2o-trash.mos
   noscf
 end

 tce
   2eorb
   2emet 13
   ccsd
   maxiter 300
 end

 set tce:print_integrals T
 set tce:qorb 8
 set tce:qela 5
 set tce:qelb 5

# set tce:qducc T
# set tce:nactv 3
# set tce:nonhf T
# set tce:ducc_model 6

 set tce:printtol 0.02

 task tce
================================================================================

 Output coordinates in a.u. (scale by  1.000000000 to convert to a.u.)

  No.       Tag          Charge          X              Y              Z
 ---- ---------------- ---------- -------------- -------------- --------------
    1 O                    8.0000    -0.17255800    -0.45867980     0.00000000
    2 H                    1.0000    -0.17255800     4.77671820     0.00000000
    3 H                    1.0000     1.55302200    -1.10727980     0.00000000

 Vector    1  Occ=1.999992D+00  E=-2.061124D+01  Symmetry=a

 Vector    2  Occ=1.998880D+00  E=-1.307556D+00  Symmetry=a

 Vector    3  Occ=1.985477D+00  E=-6.728410D-01  Symmetry=a

 Vector    4  Occ=1.974830D+00  E=-5.499674D-01  Symmetry=a

 Vector    5  Occ=1.193560D+00  E=-3.438418D-01  Symmetry=a

 Vector    6  Occ=8.065473D-01  E=-2.278684D-01  Symmetry=a

 Vector    7  Occ=2.631299D-02  E=-2.610661D-02  Symmetry=a

 Vector    8  Occ=1.439976D-02  E=-1.277221D-02  Symmetry=a

 Vector    9  Occ=0.000000D+00  E= 2.757293D-01  Symmetry=a

 Vector   10  Occ=0.000000D+00  E= 4.156414D-01  Symmetry=a

 Vector   11  Occ=0.000000D+00  E= 6.376175D-01  Symmetry=a

 Vector   12  Occ=0.000000D+00  E= 6.855989D-01  Symmetry=a

 Vector   13  Occ=0.000000D+00  E= 7.872452D-01  Symmetry=a

 Vector   14  Occ=0.000000D+00  E= 8.047392D-01  Symmetry=a

 Vector   15  Occ=0.000000D+00  E= 8.401340D-01  Symmetry=a

 Vector   16  Occ=0.000000D+00  E= 8.879006D-01  Symmetry=a

 Vector   17  Occ=0.000000D+00  E= 9.788254D-01  Symmetry=a

 Vector   18  Occ=0.000000D+00  E= 1.138372D+00  Symmetry=a

         Total SCF energy =    -75.696002030292

 Vector    2  Occ=2.000000D+00  E=-1.307556D+00

 Vector    3  Occ=2.000000D+00  E=-6.728410D-01

 Vector    4  Occ=2.000000D+00  E=-5.499674D-01

 Vector    5  Occ=2.000000D+00  E=-3.438418D-01

 Vector    6  Occ=0.000000D+00  E=-2.278684D-01

 Vector    7  Occ=0.000000D+00  E=-2.610661D-02

 Vector    8  Occ=0.000000D+00  E=-1.277221D-02

 Vector    9  Occ=0.000000D+00  E= 2.757293D-01

 Vector   10  Occ=0.000000D+00  E= 4.156414D-01

 Vector   11  Occ=0.000000D+00  E= 6.376175D-01

 Vector   12  Occ=0.000000D+00  E= 6.855989D-01

 Vector   13  Occ=0.000000D+00  E= 7.872452D-01

 Vector   14  Occ=0.000000D+00  E= 8.047392D-01

 Vector   15  Occ=0.000000D+00  E= 8.401340D-01

       Multipole analysis of the density wrt the origin
       ------------------------------------------------

     L   x y z        total         open         nuclear
     -   - - -        -----         ----         -------
     0   0 0 0     -0.000000      0.000000     10.000000

     1   1 0 0      0.600134      0.000000     -0.000000
     1   0 1 0     -0.133846      0.000000      0.000000
     1   0 0 1      0.000000      0.000000      0.000000

     2   2 0 0     -4.458065      0.000000      2.679864
     2   1 1 0     -0.642928      0.000000     -1.910700
     2   1 0 1     -0.000000      0.000000      0.000000
     2   0 2 0     -3.806684      0.000000     25.726203
     2   0 1 1     -0.000000      0.000000      0.000000

 CCSD total energy / hartree       =       -75.967682855413415
 Total times  cpu:      585.3s     wall:      854.3s
