============================== echo of input deck ==============================
 echo
 start H2O
 title "H2O"

 memory total 24 gb

 geometry units bohr
 symmetry c1
        O  0.00000000  0.00000000  0.00000000
        H  0.00000000  5.272267  0.00000000
        H  1.72558000 -0.64860000  0.00000000
 end

 basis spherical
   * library cc-pVTZ
 end

 mcscf
   active  8
   actelec 10
   multiplicity 1
   maxiter 40
   vectors input h2o.mos
   vectors output h2o.mos
 end

 task mcscf

 scf
   vectors input h2o.mos
   vectors output h2o-trash.mos
   noscf
 end

 tce
   2eorb
   2emet 13
   ccsd
   maxiter 300
 end

 set tce:print_integrals T
 set tce:qorb 8
 set tce:qela 5
 set tce:qelb 5

# set tce:qducc T
# set tce:nactv 3
# set tce:nonhf T
# set tce:ducc_model 6

 set tce:printtol 0.02

 task tce
================================================================================

 Output coordinates in a.u. (scale by  1.000000000 to convert to a.u.)

  No.       Tag          Charge          X              Y              Z
 ---- ---------------- ---------- -------------- -------------- --------------
    1 O                    8.0000    -0.17255800    -0.46236670     0.00000000
    2 H                    1.0000    -0.17255800     4.80990030     0.00000000
    3 H                    1.0000     1.55302200    -1.11096670     0.00000000

 Vector    1  Occ=1.999992D+00  E=-2.061120D+01  Symmetry=a

 Vector    2  Occ=1.998884D+00  E=-1.307556D+00  Symmetry=a

 Vector    3  Occ=1.985488D+00  E=-6.728402D-01  Symmetry=a

 Vector    4  Occ=1.974834D+00  E=-5.499716D-01  Symmetry=a

 Vector    5  Occ=1.187542D+00  E=-3.428936D-01  Symmetry=a

 Vector    6  Occ=8.125594D-01  E=-2.288821D-01  Symmetry=a

 Vector    7  Occ=2.630942D-02  E=-2.610476D-02  Symmetry=a

 Vector    8  Occ=1.439086D-02  E=-1.276861D-02  Symmetry=a

 Vector    9  Occ=0.000000D+00  E= 2.754070D-01  Symmetry=a

 Vector   10  Occ=0.000000D+00  E= 4.156467D-01  Symmetry=a

 Vector   11  Occ=0.000000D+00  E= 6.381210D-01  Symmetry=a

 Vector   12  Occ=0.000000D+00  E= 6.864405D-01  Symmetry=a

 Vector   13  Occ=0.000000D+00  E= 7.875077D-01  Symmetry=a

 Vector   14  Occ=0.000000D+00  E= 8.038842D-01  Symmetry=a

 Vector   15  Occ=0.000000D+00  E= 8.399338D-01  Symmetry=a

 Vector   16  Occ=0.000000D+00  E= 8.874810D-01  Symmetry=a

 Vector   17  Occ=0.000000D+00  E= 9.774516D-01  Symmetry=a

 Vector   18  Occ=0.000000D+00  E= 1.134553D+00  Symmetry=a

         Total SCF energy =    -75.694122826937

 Vector    2  Occ=2.000000D+00  E=-1.307556D+00

 Vector    3  Occ=2.000000D+00  E=-6.728402D-01

 Vector    4  Occ=2.000000D+00  E=-5.499716D-01

 Vector    5  Occ=2.000000D+00  E=-3.428936D-01

 Vector    6  Occ=0.000000D+00  E=-2.288821D-01

 Vector    7  Occ=0.000000D+00  E=-2.610476D-02

 Vector    8  Occ=0.000000D+00  E=-1.276861D-02

 Vector    9  Occ=0.000000D+00  E= 2.754070D-01

 Vector   10  Occ=0.000000D+00  E= 4.156467D-01

 Vector   11  Occ=0.000000D+00  E= 6.381210D-01

 Vector   12  Occ=0.000000D+00  E= 6.864405D-01

 Vector   13  Occ=0.000000D+00  E= 7.875077D-01

 Vector   14  Occ=0.000000D+00  E= 8.038842D-01

 Vector   15  Occ=0.000000D+00  E= 8.399338D-01

       Multipole analysis of the density wrt the origin
       ------------------------------------------------

     L   x y z        total         open         nuclear
     -   - - -        -----         ----         -------
     0   0 0 0     -0.000000      0.000000     10.000000

     1   1 0 0      0.600617      0.000000     -0.000000
     1   0 1 0     -0.137070      0.000000     -0.000000
     1   0 0 1      0.000000      0.000000      0.000000

     2   2 0 0     -4.456450      0.000000      2.679864
     2   1 1 0     -0.642338      0.000000     -1.917062
     2   1 0 1     -0.000000      0.000000      0.000000
     2   0 2 0     -3.819893      0.000000     26.079652
     2   0 1 1     -0.000000      0.000000      0.000000

 CCSD total energy / hartree       =       -75.967579977199648
 Total times  cpu:      614.6s     wall:      898.4s
