============================== echo of input deck ==============================
 echo
 start H2O
 title "H2O"

 memory total 24 gb

 geometry units bohr
 symmetry c1
        O  0.00000000  0.00000000  0.00000000
        H  0.00000000  5.3644395  0.00000000
        H  1.72558000 -0.64860000  0.00000000
 end

 basis spherical
   * library cc-pVTZ
 end

 mcscf
   active  8
   actelec 10
   multiplicity 1
   maxiter 40
   vectors input h2o.mos
   vectors output h2o.mos
 end

 task mcscf

 scf
   vectors input h2o.mos
   vectors output h2o-trash.mos
   noscf
 end

 tce
   2eorb
   2emet 13
   ccsd
   maxiter 300
 end

 set tce:print_integrals T
 set tce:qorb 8
 set tce:qela 5
 set tce:qelb 5

# set tce:qducc T
# set tce:nactv 3
# set tce:nonhf T
# set tce:ducc_model 6

 set tce:printtol 0.02

 task tce
================================================================================

 Output coordinates in a.u. (scale by  1.000000000 to convert to a.u.)

  No.       Tag          Charge          X              Y              Z
 ---- ---------------- ---------- -------------- -------------- --------------
    1 O                    8.0000    -0.17255800    -0.47158395     0.00000000
    2 H                    1.0000    -0.17255800     4.89285555     0.00000000
    3 H                    1.0000     1.55302200    -1.12018395     0.00000000

 Vector    1  Occ=1.999992D+00  E=-2.061113D+01  Symmetry=a

 Vector    2  Occ=1.998892D+00  E=-1.307551D+00  Symmetry=a

 Vector    3  Occ=1.985511D+00  E=-6.728354D-01  Symmetry=a

 Vector    4  Occ=1.974843D+00  E=-5.499769D-01  Symmetry=a

 Vector    5  Occ=1.173298D+00  E=-3.406933D-01  Symmetry=a

 Vector    6  Occ=8.267900D-01  E=-2.312369D-01  Symmetry=a

 Vector    7  Occ=2.630218D-02  E=-2.609995D-02  Symmetry=a

 Vector    8  Occ=1.437181D-02  E=-1.275992D-02  Symmetry=a

 Vector    9  Occ=0.000000D+00  E= 2.746146D-01  Symmetry=a

 Vector   10  Occ=0.000000D+00  E= 4.154698D-01  Symmetry=a

 Vector   11  Occ=0.000000D+00  E= 6.393840D-01  Symmetry=a

 Vector   12  Occ=0.000000D+00  E= 6.890639D-01  Symmetry=a

 Vector   13  Occ=0.000000D+00  E= 7.881051D-01  Symmetry=a

 Vector   14  Occ=0.000000D+00  E= 8.019008D-01  Symmetry=a

 Vector   15  Occ=0.000000D+00  E= 8.394137D-01  Symmetry=a

 Vector   16  Occ=0.000000D+00  E= 8.865329D-01  Symmetry=a

 Vector   17  Occ=0.000000D+00  E= 9.733485D-01  Symmetry=a

 Vector   18  Occ=0.000000D+00  E= 1.125926D+00  Symmetry=a

         Total SCF energy =    -75.689598958306

 Vector    2  Occ=2.000000D+00  E=-1.307551D+00

 Vector    3  Occ=2.000000D+00  E=-6.728354D-01

 Vector    4  Occ=2.000000D+00  E=-5.499769D-01

 Vector    5  Occ=2.000000D+00  E=-3.406933D-01

 Vector    6  Occ=0.000000D+00  E=-2.312369D-01

 Vector    7  Occ=0.000000D+00  E=-2.609995D-02

 Vector    8  Occ=0.000000D+00  E=-1.275992D-02

 Vector    9  Occ=0.000000D+00  E= 2.746146D-01

 Vector   10  Occ=0.000000D+00  E= 4.154698D-01

 Vector   11  Occ=0.000000D+00  E= 6.393840D-01

 Vector   12  Occ=0.000000D+00  E= 6.890639D-01

 Vector   13  Occ=0.000000D+00  E= 7.881051D-01

 Vector   14  Occ=0.000000D+00  E= 8.019008D-01

 Vector   15  Occ=0.000000D+00  E= 8.394137D-01

       Multipole analysis of the density wrt the origin
       ------------------------------------------------

     L   x y z        total         open         nuclear
     -   - - -        -----         ----         -------
     0   0 0 0     -0.000000      0.000000     10.000000

     1   1 0 0      0.601784      0.000000     -0.000000
     1   0 1 0     -0.144564      0.000000      0.000000
     1   0 0 1      0.000000      0.000000      0.000000

     2   2 0 0     -4.452617      0.000000      2.679864
     2   1 1 0     -0.641110      0.000000     -1.932967
     2   1 0 1     -0.000000      0.000000      0.000000
     2   0 2 0     -3.851229      0.000000     26.973979
     2   0 1 1     -0.000000      0.000000      0.000000

 CCSD total energy / hartree       =       -75.967352679262419
 Total times  cpu:      204.5s     wall:      302.8s
