============================== echo of input deck ==============================
 echo
 start H2O
 title "H2O"

 memory total 24 gb

 geometry units bohr
 symmetry c1
        O  0.00000000  0.00000000  0.00000000
        H  0.00000000  5.456612  0.00000000
        H  1.72558000 -0.64860000  0.00000000
 end

 basis spherical
   * library cc-pVTZ
 end

 mcscf
   active  8
   actelec 10
   multiplicity 1
   maxiter 40
   vectors input h2o.mos
   vectors output h2o.mos
 end

 task mcscf

 scf
   vectors input h2o.mos
   vectors output h2o-trash.mos
   noscf
 end

 tce
   2eorb
   2emet 13
   ccsd
   maxiter 300
 end

 set tce:print_integrals T
 set tce:qorb 8
 set tce:qela 5
 set tce:qelb 5

# set tce:qducc T
# set tce:nactv 3
# set tce:nonhf T
# set tce:ducc_model 6

 set tce:printtol 0.02

 task tce
================================================================================

 Output coordinates in a.u. (scale by  1.000000000 to convert to a.u.)

  No.       Tag          Charge          X              Y              Z
 ---- ---------------- ---------- -------------- -------------- --------------
    1 O                    8.0000    -0.17255800    -0.48080120     0.00000000
    2 H                    1.0000    -0.17255800     4.97581080     0.00000000
    3 H                    1.0000     1.55302200    -1.12940120     0.00000000

 Vector    1  Occ=1.999992D+00  E=-2.061105D+01  Symmetry=a

 Vector    2  Occ=1.998898D+00  E=-1.307540D+00  Symmetry=a

 Vector    3  Occ=1.985531D+00  E=-6.728241D-01  Symmetry=a

 Vector    4  Occ=1.974851D+00  E=-5.499731D-01  Symmetry=a

 Vector    5  Occ=1.160083D+00  E=-3.387358D-01  Symmetry=a

 Vector    6  Occ=8.399923D-01  E=-2.333368D-01  Symmetry=a

 Vector    7  Occ=2.629599D-02  E=-2.609567D-02  Symmetry=a

 Vector    8  Occ=1.435562D-02  E=-1.275240D-02  Symmetry=a

 Vector    9  Occ=0.000000D+00  E= 2.738690D-01  Symmetry=a

 Vector   10  Occ=0.000000D+00  E= 4.150462D-01  Symmetry=a

 Vector   11  Occ=0.000000D+00  E= 6.406363D-01  Symmetry=a

 Vector   12  Occ=0.000000D+00  E= 6.923115D-01  Symmetry=a

 Vector   13  Occ=0.000000D+00  E= 7.886153D-01  Symmetry=a

 Vector   14  Occ=0.000000D+00  E= 8.001291D-01  Symmetry=a

 Vector   15  Occ=0.000000D+00  E= 8.388476D-01  Symmetry=a

 Vector   16  Occ=0.000000D+00  E= 8.857223D-01  Symmetry=a

 Vector   17  Occ=0.000000D+00  E= 9.683453D-01  Symmetry=a

 Vector   18  Occ=0.000000D+00  E= 1.118624D+00  Symmetry=a

         Total SCF energy =    -75.685299915910

 Vector    2  Occ=2.000000D+00  E=-1.307540D+00

 Vector    3  Occ=2.000000D+00  E=-6.728241D-01

 Vector    4  Occ=2.000000D+00  E=-5.499731D-01

 Vector    5  Occ=2.000000D+00  E=-3.387358D-01

 Vector    6  Occ=0.000000D+00  E=-2.333368D-01

 Vector    7  Occ=0.000000D+00  E=-2.609567D-02

 Vector    8  Occ=0.000000D+00  E=-1.275240D-02

 Vector    9  Occ=0.000000D+00  E= 2.738690D-01

 Vector   10  Occ=0.000000D+00  E= 4.150462D-01

 Vector   11  Occ=0.000000D+00  E= 6.406363D-01

 Vector   12  Occ=0.000000D+00  E= 6.923115D-01

 Vector   13  Occ=0.000000D+00  E= 7.886153D-01

 Vector   14  Occ=0.000000D+00  E= 8.001291D-01

 Vector   15  Occ=0.000000D+00  E= 8.388476D-01

       Multipole analysis of the density wrt the origin
       ------------------------------------------------

     L   x y z        total         open         nuclear
     -   - - -        -----         ----         -------
     0   0 0 0     -0.000000      0.000000     10.000000

     1   1 0 0      0.602880      0.000000     -0.000000
     1   0 1 0     -0.151472      0.000000     -0.000000
     1   0 0 1      0.000000      0.000000      0.000000

     2   2 0 0     -4.448929      0.000000      2.679864
     2   1 1 0     -0.640394      0.000000     -1.948872
     2   1 0 1     -0.000000      0.000000      0.000000
     2   0 2 0     -3.881409      0.000000     27.883599
     2   0 1 1     -0.000000      0.000000      0.000000

 CCSD total energy / hartree       =       -75.967163106611181
 Total times  cpu:      135.8s     wall:      198.0s
