============================== echo of input deck ==============================
 echo
 start H2O
 title "H2O"

 memory total 24 gb

 geometry units bohr
 symmetry c1
        O  0.00000000  0.00000000  0.00000000
        H  0.00000000  5.4750465  0.00000000
        H  1.72558000 -0.64860000  0.00000000
 end

 basis spherical
   * library cc-pVTZ
 end

 mcscf
   active  8
   actelec 10
   multiplicity 1
   maxiter 40
   vectors input h2o.mos
   vectors output h2o.mos
 end

 task mcscf

 scf
   vectors input h2o.mos
   vectors output h2o-trash.mos
   noscf
 end

 tce
   2eorb
   2emet 13
   ccsd
   maxiter 300
 end

 set tce:print_integrals T
 set tce:qorb 8
 set tce:qela 5
 set tce:qelb 5

# set tce:qducc T
# set tce:nactv 3
# set tce:nonhf T
# set tce:ducc_model 6

 set tce:printtol 0.02

 task tce
================================================================================

 Output coordinates in a.u. (scale by  1.000000000 to convert to a.u.)

  No.       Tag          Charge          X              Y              Z
 ---- ---------------- ---------- -------------- -------------- --------------
    1 O                    8.0000    -0.17255800    -0.48264465     0.00000000
    2 H                    1.0000    -0.17255800     4.99240185     0.00000000
    3 H                    1.0000     1.55302200    -1.13124465     0.00000000

 Vector    1  Occ=1.999992D+00  E=-2.061104D+01  Symmetry=a

 Vector    2  Occ=1.998900D+00  E=-1.307536D+00  Symmetry=a

 Vector    3  Occ=1.985534D+00  E=-6.728212D-01  Symmetry=a

 Vector    4  Occ=1.974852D+00  E=-5.499713D-01  Symmetry=a

 Vector    5  Occ=1.157593D+00  E=-3.383710D-01  Symmetry=a

 Vector    6  Occ=8.424805D-01  E=-2.337283D-01  Symmetry=a

 Vector    7  Occ=2.629510D-02  E=-2.609467D-02  Symmetry=a

 Vector    8  Occ=1.435298D-02  E=-1.275088D-02  Symmetry=a

 Vector    9  Occ=0.000000D+00  E= 2.737206D-01  Symmetry=a

 Vector   10  Occ=0.000000D+00  E= 4.149354D-01  Symmetry=a

 Vector   11  Occ=0.000000D+00  E= 6.408845D-01  Symmetry=a

 Vector   12  Occ=0.000000D+00  E= 6.930276D-01  Symmetry=a

 Vector   13  Occ=0.000000D+00  E= 7.887081D-01  Symmetry=a

 Vector   14  Occ=0.000000D+00  E= 7.998014D-01  Symmetry=a

 Vector   15  Occ=0.000000D+00  E= 8.387260D-01  Symmetry=a

 Vector   16  Occ=0.000000D+00  E= 8.855751D-01  Symmetry=a

 Vector   17  Occ=0.000000D+00  E= 9.672459D-01  Symmetry=a

 Vector   18  Occ=0.000000D+00  E= 1.117321D+00  Symmetry=a

         Total SCF energy =    -75.684474210748

 Vector    2  Occ=2.000000D+00  E=-1.307536D+00

 Vector    3  Occ=2.000000D+00  E=-6.728212D-01

 Vector    4  Occ=2.000000D+00  E=-5.499713D-01

 Vector    5  Occ=2.000000D+00  E=-3.383710D-01

 Vector    6  Occ=0.000000D+00  E=-2.337283D-01

 Vector    7  Occ=0.000000D+00  E=-2.609467D-02

 Vector    8  Occ=0.000000D+00  E=-1.275088D-02

 Vector    9  Occ=0.000000D+00  E= 2.737206D-01

 Vector   10  Occ=0.000000D+00  E= 4.149354D-01

 Vector   11  Occ=0.000000D+00  E= 6.408845D-01

 Vector   12  Occ=0.000000D+00  E= 6.930276D-01

 Vector   13  Occ=0.000000D+00  E= 7.887081D-01

 Vector   14  Occ=0.000000D+00  E= 7.998014D-01

 Vector   15  Occ=0.000000D+00  E= 8.387260D-01

       Multipole analysis of the density wrt the origin
       ------------------------------------------------

     L   x y z        total         open         nuclear
     -   - - -        -----         ----         -------
     0   0 0 0     -0.000000      0.000000     10.000000

     1   1 0 0      0.603087      0.000000     -0.000000
     1   0 1 0     -0.152715      0.000000      0.000000
     1   0 0 1      0.000000      0.000000      0.000000

     2   2 0 0     -4.448278      0.000000      2.679864
     2   1 1 0     -0.640322      0.000000     -1.952053
     2   1 0 1     -0.000000      0.000000      0.000000
     2   0 2 0     -3.886926      0.000000     28.067358
     2   0 1 1     -0.000000      0.000000      0.000000

 CCSD total energy / hartree       =       -75.967129031942875
 Total times  cpu:      127.0s     wall:      183.5s
