============================== echo of input deck ==============================
 echo
 start H2O
 title "H2O"

 memory total 24 gb

 geometry units bohr
 symmetry c1
        O  0.00000000  0.00000000  0.00000000
        H  0.00000000  5.5119155  0.00000000
        H  1.72558000 -0.64860000  0.00000000
 end

 basis spherical
   * library cc-pVTZ
 end

 mcscf
   active  8
   actelec 10
   multiplicity 1
   maxiter 40
   vectors input h2o.mos
   vectors output h2o.mos
 end

 task mcscf

 scf
   vectors input h2o.mos
   vectors output h2o-trash.mos
   noscf
 end

 tce
   2eorb
   2emet 13
   ccsd
   maxiter 300
 end

 set tce:print_integrals T
 set tce:qorb 8
 set tce:qela 5
 set tce:qelb 5

# set tce:qducc T
# set tce:nactv 3
# set tce:nonhf T
# set tce:ducc_model 6

 set tce:printtol 0.02

 task tce
================================================================================

 Output coordinates in a.u. (scale by  1.000000000 to convert to a.u.)

  No.       Tag          Charge          X              Y              Z
 ---- ---------------- ---------- -------------- -------------- --------------
    1 O                    8.0000    -0.17255800    -0.48633155     0.00000000
    2 H                    1.0000    -0.17255800     5.02558395     0.00000000
    3 H                    1.0000     1.55302200    -1.13493155     0.00000000

 Vector    1  Occ=1.999992D+00  E=-2.061101D+01  Symmetry=a

 Vector    2  Occ=1.998902D+00  E=-1.307530D+00  Symmetry=a

 Vector    3  Occ=1.985541D+00  E=-6.728155D-01  Symmetry=a

 Vector    4  Occ=1.974855D+00  E=-5.499679D-01  Symmetry=a

 Vector    5  Occ=1.152637D+00  E=-3.376659D-01  Symmetry=a

 Vector    6  Occ=8.474322D-01  E=-2.344869D-01  Symmetry=a

 Vector    7  Occ=2.629298D-02  E=-2.609317D-02  Symmetry=a

 Vector    8  Occ=1.434734D-02  E=-1.274823D-02  Symmetry=a

 Vector    9  Occ=0.000000D+00  E= 2.734388D-01  Symmetry=a

 Vector   10  Occ=0.000000D+00  E= 4.146892D-01  Symmetry=a

 Vector   11  Occ=0.000000D+00  E= 6.413748D-01  Symmetry=a

 Vector   12  Occ=0.000000D+00  E= 6.945137D-01  Symmetry=a

 Vector   13  Occ=0.000000D+00  E= 7.888830D-01  Symmetry=a

 Vector   14  Occ=0.000000D+00  E= 7.991685D-01  Symmetry=a

 Vector   15  Occ=0.000000D+00  E= 8.384742D-01  Symmetry=a

 Vector   16  Occ=0.000000D+00  E= 8.852956D-01  Symmetry=a

 Vector   17  Occ=0.000000D+00  E= 9.649578D-01  Symmetry=a

 Vector   18  Occ=0.000000D+00  E= 1.114861D+00  Symmetry=a

         Total SCF energy =    -75.682827879589

 Vector    2  Occ=2.000000D+00  E=-1.307530D+00

 Vector    3  Occ=2.000000D+00  E=-6.728155D-01

 Vector    4  Occ=2.000000D+00  E=-5.499679D-01

 Vector    5  Occ=2.000000D+00  E=-3.376659D-01

 Vector    6  Occ=0.000000D+00  E=-2.344869D-01

 Vector    7  Occ=0.000000D+00  E=-2.609317D-02

 Vector    8  Occ=0.000000D+00  E=-1.274823D-02

 Vector    9  Occ=0.000000D+00  E= 2.734388D-01

 Vector   10  Occ=0.000000D+00  E= 4.146892D-01

 Vector   11  Occ=0.000000D+00  E= 6.413748D-01

 Vector   12  Occ=0.000000D+00  E= 6.945137D-01

 Vector   13  Occ=0.000000D+00  E= 7.888830D-01

 Vector   14  Occ=0.000000D+00  E= 7.991685D-01

 Vector   15  Occ=0.000000D+00  E= 8.384742D-01

       Multipole analysis of the density wrt the origin
       ------------------------------------------------

     L   x y z        total         open         nuclear
     -   - - -        -----         ----         -------
     0   0 0 0     -0.000000      0.000000     10.000000

     1   1 0 0      0.603511      0.000000     -0.000000
     1   0 1 0     -0.155304      0.000000      0.000000
     1   0 0 1      0.000000      0.000000      0.000000

     2   2 0 0     -4.446822      0.000000      2.679864
     2   1 1 0     -0.640150      0.000000     -1.958415
     2   1 0 1     -0.000000      0.000000      0.000000
     2   0 2 0     -3.898644      0.000000     28.436711
     2   0 1 1     -0.000000      0.000000      0.000000

 CCSD total energy / hartree       =       -75.967064932363542
 Total times  cpu:      114.6s     wall:      168.8s
