============================== echo of input deck ==============================
 echo
 start H2O
 title "H2O"

 memory total 24 gb

 geometry units bohr
 symmetry c1
        O  0.00000000  0.00000000  0.00000000
        H  0.00000000  1.659105  0.00000000
        H  1.72558000 -0.64860000  0.00000000
 end

 basis spherical
   * library cc-pVDZ
 end

 mcscf
   active  8
   actelec 10
   multiplicity 1
   maxiter 40
   vectors input h2o.mos
   vectors output h2o.mos
 end

 task mcscf

 scf
   vectors input h2o.mos
   vectors output h2o-trash.mos
   noscf
 end

 tce
   2eorb
   2emet 13
   ccsd
   maxiter 300
 end

# set tce:print_integrals T
# set tce:qorb 8
# set tce:qela 5
# set tce:qelb 5

 set tce:qducc T
 set tce:nactv 3
 set tce:nonhf T
 set tce:ducc_model 6

 set tce:printtol 0.02

 task tce
================================================================================

 Output coordinates in a.u. (scale by  1.000000000 to convert to a.u.)

  No.       Tag          Charge          X              Y              Z
 ---- ---------------- ---------- -------------- -------------- --------------
    1 O                    8.0000    -0.17255800    -0.10105050     0.00000000
    2 H                    1.0000    -0.17255800     1.55805450     0.00000000
    3 H                    1.0000     1.55302200    -0.74965050     0.00000000

 Vector    1  Occ=1.999991D+00  E=-2.053716D+01  Symmetry=a

 Vector    2  Occ=1.998984D+00  E=-1.359532D+00  Symmetry=a

 Vector    3  Occ=1.984331D+00  E=-7.511518D-01  Symmetry=a

 Vector    4  Occ=1.981784D+00  E=-5.752755D-01  Symmetry=a

 Vector    5  Occ=1.977057D+00  E=-5.146990D-01  Symmetry=a

 Vector    6  Occ=2.371325D-02  E=-2.546292D-02  Symmetry=a

 Vector    7  Occ=1.881397D-02  E=-2.158467D-02  Symmetry=a

 Vector    8  Occ=1.532547D-02  E=-1.424649D-02  Symmetry=a

 Vector    9  Occ=0.000000D+00  E= 4.530857D-01  Symmetry=a

 Vector   10  Occ=0.000000D+00  E= 5.106928D-01  Symmetry=a

 Vector   11  Occ=0.000000D+00  E= 1.040433D+00  Symmetry=a

 Vector   12  Occ=0.000000D+00  E= 1.081988D+00  Symmetry=a

 Vector   13  Occ=0.000000D+00  E= 1.464979D+00  Symmetry=a

 Vector   14  Occ=0.000000D+00  E= 1.473489D+00  Symmetry=a

 Vector   15  Occ=0.000000D+00  E= 1.703820D+00  Symmetry=a

 Vector   16  Occ=0.000000D+00  E= 1.864545D+00  Symmetry=a

 Vector   17  Occ=0.000000D+00  E= 1.931951D+00  Symmetry=a

 Vector   18  Occ=0.000000D+00  E= 2.348536D+00  Symmetry=a

         Total SCF energy =    -76.018620248739

 Vector    2  Occ=2.000000D+00  E=-1.359532D+00

 Vector    3  Occ=2.000000D+00  E=-7.511518D-01

 Vector    4  Occ=2.000000D+00  E=-5.752755D-01

 Vector    5  Occ=2.000000D+00  E=-5.146990D-01

 Vector    6  Occ=0.000000D+00  E=-2.546292D-02

 Vector    7  Occ=0.000000D+00  E=-2.158467D-02

 Vector    8  Occ=0.000000D+00  E=-1.424649D-02

 Vector    9  Occ=0.000000D+00  E= 4.530857D-01

 Vector   10  Occ=0.000000D+00  E= 5.106928D-01

 Vector   11  Occ=0.000000D+00  E= 1.040433D+00

 Vector   12  Occ=0.000000D+00  E= 1.081988D+00

 Vector   13  Occ=0.000000D+00  E= 1.464979D+00

 Vector   14  Occ=0.000000D+00  E= 1.473489D+00

 Vector   15  Occ=0.000000D+00  E= 1.703820D+00

       Multipole analysis of the density wrt the origin
       ------------------------------------------------

     L   x y z        total         open         nuclear
     -   - - -        -----         ----         -------
     0   0 0 0     -0.000000      0.000000     10.000000

     1   1 0 0      0.614320      0.000000     -0.000000
     1   0 1 0      0.386791      0.000000     -0.000000
     1   0 0 1     -0.000000      0.000000      0.000000

     2   2 0 0     -3.919924      0.000000      2.679864
     2   1 1 0     -0.739535      0.000000     -1.293582
     2   1 0 1     -0.000000      0.000000      0.000000
     2   0 2 0     -3.556988      0.000000      3.071199
     2   0 1 1     -0.000000      0.000000      0.000000

 CCSD total energy / hartree       =       -76.229953287988735
 Total times  cpu:        7.6s     wall:       10.0s
