============================== echo of input deck ==============================
 echo
 start H2O
 title "H2O"

 memory total 24 gb

 geometry units bohr
 symmetry c1
        O  0.00000000  0.00000000  0.00000000
        H  0.00000000  1.6775395  0.00000000
        H  1.72558000 -0.64860000  0.00000000
 end

 basis spherical
   * library cc-pVDZ
 end

 mcscf
   active  8
   actelec 10
   multiplicity 1
   maxiter 40
   vectors input h2o.mos
   vectors output h2o.mos
 end

 task mcscf

 scf
   vectors input h2o.mos
   vectors output h2o-trash.mos
   noscf
 end

 tce
   2eorb
   2emet 13
   ccsd
   maxiter 300
 end

# set tce:print_integrals T
# set tce:qorb 8
# set tce:qela 5
# set tce:qelb 5

 set tce:qducc T
 set tce:nactv 3
 set tce:nonhf T
 set tce:ducc_model 6

 set tce:printtol 0.02

 task tce
================================================================================

 Output coordinates in a.u. (scale by  1.000000000 to convert to a.u.)

  No.       Tag          Charge          X              Y              Z
 ---- ---------------- ---------- -------------- -------------- --------------
    1 O                    8.0000    -0.17255800    -0.10289395     0.00000000
    2 H                    1.0000    -0.17255800     1.57464555     0.00000000
    3 H                    1.0000     1.55302200    -0.75149395     0.00000000

 Vector    1  Occ=1.999991D+00  E=-2.053799D+01  Symmetry=a

 Vector    2  Occ=1.998969D+00  E=-1.356389D+00  Symmetry=a

 Vector    3  Occ=1.984265D+00  E=-7.483609D-01  Symmetry=a

 Vector    4  Occ=1.981325D+00  E=-5.745409D-01  Symmetry=a

 Vector    5  Occ=1.976995D+00  E=-5.142350D-01  Symmetry=a

 Vector    6  Occ=2.377435D-02  E=-2.548060D-02  Symmetry=a

 Vector    7  Occ=1.929729D-02  E=-2.194411D-02  Symmetry=a

 Vector    8  Occ=1.538277D-02  E=-1.424119D-02  Symmetry=a

 Vector    9  Occ=0.000000D+00  E= 4.545727D-01  Symmetry=a

 Vector   10  Occ=0.000000D+00  E= 5.108898D-01  Symmetry=a

 Vector   11  Occ=0.000000D+00  E= 1.040323D+00  Symmetry=a

 Vector   12  Occ=0.000000D+00  E= 1.081282D+00  Symmetry=a

 Vector   13  Occ=0.000000D+00  E= 1.463541D+00  Symmetry=a

 Vector   14  Occ=0.000000D+00  E= 1.474606D+00  Symmetry=a

 Vector   15  Occ=0.000000D+00  E= 1.703091D+00  Symmetry=a

 Vector   16  Occ=0.000000D+00  E= 1.864712D+00  Symmetry=a

 Vector   17  Occ=0.000000D+00  E= 1.926730D+00  Symmetry=a

 Vector   18  Occ=0.000000D+00  E= 2.348546D+00  Symmetry=a

         Total SCF energy =    -76.020280641045

 Vector    2  Occ=2.000000D+00  E=-1.356389D+00

 Vector    3  Occ=2.000000D+00  E=-7.483609D-01

 Vector    4  Occ=2.000000D+00  E=-5.745409D-01

 Vector    5  Occ=2.000000D+00  E=-5.142350D-01

 Vector    6  Occ=0.000000D+00  E=-2.548060D-02

 Vector    7  Occ=0.000000D+00  E=-2.194411D-02

 Vector    8  Occ=0.000000D+00  E=-1.424119D-02

 Vector    9  Occ=0.000000D+00  E= 4.545727D-01

 Vector   10  Occ=0.000000D+00  E= 5.108898D-01

 Vector   11  Occ=0.000000D+00  E= 1.040323D+00

 Vector   12  Occ=0.000000D+00  E= 1.081282D+00

 Vector   13  Occ=0.000000D+00  E= 1.463541D+00

 Vector   14  Occ=0.000000D+00  E= 1.474606D+00

 Vector   15  Occ=0.000000D+00  E= 1.703091D+00

       Multipole analysis of the density wrt the origin
       ------------------------------------------------

     L   x y z        total         open         nuclear
     -   - - -        -----         ----         -------
     0   0 0 0     -0.000000      0.000000     10.000000

     1   1 0 0      0.613419      0.000000     -0.000000
     1   0 1 0      0.390398      0.000000     -0.000000
     1   0 0 1     -0.000001      0.000000      0.000000

     2   2 0 0     -3.927776      0.000000      2.679864
     2   1 1 0     -0.741449      0.000000     -1.296763
     2   1 0 1     -0.000000      0.000000      0.000000
     2   0 2 0     -3.544779      0.000000      3.128949
     2   0 1 1     -0.000000      0.000000      0.000000

 CCSD total energy / hartree       =       -76.231951886974159
 Total times  cpu:        7.9s     wall:       10.4s
