============================== echo of input deck ==============================
 echo
 start H2O
 title "H2O"

 memory total 24 gb

 geometry units bohr
 symmetry c1
        O  0.00000000  0.00000000  0.00000000
        H  0.00000000  1.74206025  0.00000000
        H  1.72558000 -0.64860000  0.00000000
 end

 basis spherical
   * library cc-pVDZ
 end

 mcscf
   active  8
   actelec 10
   multiplicity 1
   maxiter 40
   vectors input h2o.mos
   vectors output h2o.mos
 end

 task mcscf

 scf
   vectors input h2o.mos
   vectors output h2o-trash.mos
   noscf
 end

 tce
   2eorb
   2emet 13
   ccsd
   maxiter 300
 end

# set tce:print_integrals T
# set tce:qorb 8
# set tce:qela 5
# set tce:qelb 5

 set tce:qducc T
 set tce:nactv 3
 set tce:nonhf T
 set tce:ducc_model 6

 set tce:printtol 0.02

 task tce
================================================================================

 Output coordinates in a.u. (scale by  1.000000000 to convert to a.u.)

  No.       Tag          Charge          X              Y              Z
 ---- ---------------- ---------- -------------- -------------- --------------
    1 O                    8.0000    -0.17255800    -0.10934603     0.00000000
    2 H                    1.0000    -0.17255800     1.63271423     0.00000000
    3 H                    1.0000     1.55302200    -0.75794603     0.00000000

 Vector    1  Occ=1.999991D+00  E=-2.054082D+01  Symmetry=a

 Vector    2  Occ=1.998915D+00  E=-1.346099D+00  Symmetry=a

 Vector    3  Occ=1.984042D+00  E=-7.387595D-01  Symmetry=a

 Vector    4  Occ=1.979615D+00  E=-5.719704D-01  Symmetry=a

 Vector    5  Occ=1.976768D+00  E=-5.127199D-01  Symmetry=a

 Vector    6  Occ=2.399569D-02  E=-2.556971D-02  Symmetry=a

 Vector    7  Occ=2.109705D-02  E=-2.321160D-02  Symmetry=a

 Vector    8  Occ=1.557754D-02  E=-1.421581D-02  Symmetry=a

 Vector    9  Occ=0.000000D+00  E= 4.594311D-01  Symmetry=a

 Vector   10  Occ=0.000000D+00  E= 5.115815D-01  Symmetry=a

 Vector   11  Occ=0.000000D+00  E= 1.040122D+00  Symmetry=a

 Vector   12  Occ=0.000000D+00  E= 1.080290D+00  Symmetry=a

 Vector   13  Occ=0.000000D+00  E= 1.458892D+00  Symmetry=a

 Vector   14  Occ=0.000000D+00  E= 1.478821D+00  Symmetry=a

 Vector   15  Occ=0.000000D+00  E= 1.700731D+00  Symmetry=a

 Vector   16  Occ=0.000000D+00  E= 1.865575D+00  Symmetry=a

 Vector   17  Occ=0.000000D+00  E= 1.908741D+00  Symmetry=a

 Vector   18  Occ=0.000000D+00  E= 2.348552D+00  Symmetry=a

         Total SCF energy =    -76.023744990597

 Vector    2  Occ=2.000000D+00  E=-1.346099D+00

 Vector    3  Occ=2.000000D+00  E=-7.387595D-01

 Vector    4  Occ=2.000000D+00  E=-5.719704D-01

 Vector    5  Occ=2.000000D+00  E=-5.127199D-01

 Vector    6  Occ=0.000000D+00  E=-2.556971D-02

 Vector    7  Occ=0.000000D+00  E=-2.321160D-02

 Vector    8  Occ=0.000000D+00  E=-1.421581D-02

 Vector    9  Occ=0.000000D+00  E= 4.594311D-01

 Vector   10  Occ=0.000000D+00  E= 5.115815D-01

 Vector   11  Occ=0.000000D+00  E= 1.040122D+00

 Vector   12  Occ=0.000000D+00  E= 1.080290D+00

 Vector   13  Occ=0.000000D+00  E= 1.458892D+00

 Vector   14  Occ=0.000000D+00  E= 1.478821D+00

 Vector   15  Occ=0.000000D+00  E= 1.700731D+00

       Multipole analysis of the density wrt the origin
       ------------------------------------------------

     L   x y z        total         open         nuclear
     -   - - -        -----         ----         -------
     0   0 0 0     -0.000000      0.000000     10.000000

     1   1 0 0      0.610433      0.000000     -0.000000
     1   0 1 0      0.402539      0.000000      0.000000
     1   0 0 1      0.000001      0.000000      0.000000

     2   2 0 0     -3.954982      0.000000      2.679864
     2   1 1 0     -0.747948      0.000000     -1.307897
     2   1 0 1      0.000001      0.000000      0.000000
     2   0 2 0     -3.500556      0.000000      3.335890
     2   0 1 1      0.000001      0.000000      0.000000

 CCSD total energy / hartree       =       -76.236609211783602
 Total times  cpu:        7.9s     wall:       10.3s
