============================== echo of input deck ==============================
 echo
 start H2O
 title "H2O"

 memory total 24 gb

 geometry units bohr
 symmetry c1
        O  0.00000000  0.00000000  0.00000000
        H  0.00000000  1.769712  0.00000000
        H  1.72558000 -0.64860000  0.00000000
 end

 basis spherical
   * library cc-pVDZ
 end

 mcscf
   active  8
   actelec 10
   multiplicity 1
   maxiter 40
   vectors input h2o.mos
   vectors output h2o.mos
 end

 task mcscf

 scf
   vectors input h2o.mos
   vectors output h2o-trash.mos
   noscf
 end

 tce
   2eorb
   2emet 13
   ccsd
   maxiter 300
 end

# set tce:print_integrals T
# set tce:qorb 8
# set tce:qela 5
# set tce:qelb 5

 set tce:qducc T
 set tce:nactv 3
 set tce:nonhf T
 set tce:ducc_model 6

 set tce:printtol 0.02

 task tce
================================================================================

 Output coordinates in a.u. (scale by  1.000000000 to convert to a.u.)

  No.       Tag          Charge          X              Y              Z
 ---- ---------------- ---------- -------------- -------------- --------------
    1 O                    8.0000    -0.17255800    -0.11211120     0.00000000
    2 H                    1.0000    -0.17255800     1.65760080     0.00000000
    3 H                    1.0000     1.55302200    -0.76071120     0.00000000

 Vector    1  Occ=1.999991D+00  E=-2.054199D+01  Symmetry=a

 Vector    2  Occ=1.998890D+00  E=-1.342016D+00  Symmetry=a

 Vector    3  Occ=1.983948D+00  E=-7.347336D-01  Symmetry=a

 Vector    4  Occ=1.978836D+00  E=-5.708657D-01  Symmetry=a

 Vector    5  Occ=1.976659D+00  E=-5.121230D-01  Symmetry=a

 Vector    6  Occ=2.409585D-02  E=-2.563318D-02  Symmetry=a

 Vector    7  Occ=2.192083D-02  E=-2.374765D-02  Symmetry=a

 Vector    8  Occ=1.565783D-02  E=-1.420169D-02  Symmetry=a

 Vector    9  Occ=0.000000D+00  E= 4.613798D-01  Symmetry=a

 Vector   10  Occ=0.000000D+00  E= 5.118958D-01  Symmetry=a

 Vector   11  Occ=0.000000D+00  E= 1.040014D+00  Symmetry=a

 Vector   12  Occ=0.000000D+00  E= 1.080638D+00  Symmetry=a

 Vector   13  Occ=0.000000D+00  E= 1.457083D+00  Symmetry=a

 Vector   14  Occ=0.000000D+00  E= 1.480748D+00  Symmetry=a

 Vector   15  Occ=0.000000D+00  E= 1.699786D+00  Symmetry=a

 Vector   16  Occ=0.000000D+00  E= 1.866019D+00  Symmetry=a

 Vector   17  Occ=0.000000D+00  E= 1.901165D+00  Symmetry=a

 Vector   18  Occ=0.000000D+00  E= 2.348473D+00  Symmetry=a

         Total SCF energy =    -76.024248277105

 Vector    2  Occ=2.000000D+00  E=-1.342016D+00

 Vector    3  Occ=2.000000D+00  E=-7.347336D-01

 Vector    4  Occ=2.000000D+00  E=-5.708657D-01

 Vector    5  Occ=2.000000D+00  E=-5.121230D-01

 Vector    6  Occ=0.000000D+00  E=-2.563318D-02

 Vector    7  Occ=0.000000D+00  E=-2.374765D-02

 Vector    8  Occ=0.000000D+00  E=-1.420169D-02

 Vector    9  Occ=0.000000D+00  E= 4.613798D-01

 Vector   10  Occ=0.000000D+00  E= 5.118958D-01

 Vector   11  Occ=0.000000D+00  E= 1.040014D+00

 Vector   12  Occ=0.000000D+00  E= 1.080638D+00

 Vector   13  Occ=0.000000D+00  E= 1.457083D+00

 Vector   14  Occ=0.000000D+00  E= 1.480748D+00

 Vector   15  Occ=0.000000D+00  E= 1.699786D+00

       Multipole analysis of the density wrt the origin
       ------------------------------------------------

     L   x y z        total         open         nuclear
     -   - - -        -----         ----         -------
     0   0 0 0     -0.000000      0.000000     10.000000

     1   1 0 0      0.609226      0.000000     -0.000000
     1   0 1 0      0.407486      0.000000      0.000000
     1   0 0 1     -0.000001      0.000000      0.000000

     2   2 0 0     -3.966509      0.000000      2.679864
     2   1 1 0     -0.750632      0.000000     -1.312668
     2   1 0 1     -0.000000      0.000000      0.000000
     2   0 2 0     -3.480987      0.000000      3.426873
     2   0 1 1     -0.000000      0.000000      0.000000

 CCSD total energy / hartree       =       -76.237628998125544
 Total times  cpu:        7.5s     wall:        9.9s
