============================== echo of input deck ==============================
 echo
 start H2O
 title "H2O"

 memory total 24 gb

 geometry units bohr
 symmetry c1
        O  0.00000000  0.00000000  0.00000000
        H  0.00000000  1.7881465  0.00000000
        H  1.72558000 -0.64860000  0.00000000
 end

 basis spherical
   * library cc-pVDZ
 end

 mcscf
   active  8
   actelec 10
   multiplicity 1
   maxiter 40
   vectors input h2o.mos
   vectors output h2o.mos
 end

 task mcscf

 scf
   vectors input h2o.mos
   vectors output h2o-trash.mos
   noscf
 end

 tce
   2eorb
   2emet 13
   ccsd
   maxiter 300
 end

# set tce:print_integrals T
# set tce:qorb 8
# set tce:qela 5
# set tce:qelb 5

 set tce:qducc T
 set tce:nactv 3
 set tce:nonhf T
 set tce:ducc_model 6

 set tce:printtol 0.02

 task tce
================================================================================

 Output coordinates in a.u. (scale by  1.000000000 to convert to a.u.)

  No.       Tag          Charge          X              Y              Z
 ---- ---------------- ---------- -------------- -------------- --------------
    1 O                    8.0000    -0.17255800    -0.11395465     0.00000000
    2 H                    1.0000    -0.17255800     1.67419185     0.00000000
    3 H                    1.0000     1.55302200    -0.76255465     0.00000000

 Vector    1  Occ=1.999991D+00  E=-2.054276D+01  Symmetry=a

 Vector    2  Occ=1.998874D+00  E=-1.339399D+00  Symmetry=a

 Vector    3  Occ=1.983887D+00  E=-7.320827D-01  Symmetry=a

 Vector    4  Occ=1.978307D+00  E=-5.701272D-01  Symmetry=a

 Vector    5  Occ=1.976578D+00  E=-5.117429D-01  Symmetry=a

 Vector    6  Occ=2.416656D-02  E=-2.569393D-02  Symmetry=a

 Vector    7  Occ=2.248621D-02  E=-2.409286D-02  Symmetry=a

 Vector    8  Occ=1.571013D-02  E=-1.419120D-02  Symmetry=a

 Vector    9  Occ=0.000000D+00  E= 4.626385D-01  Symmetry=a

 Vector   10  Occ=0.000000D+00  E= 5.121148D-01  Symmetry=a

 Vector   11  Occ=0.000000D+00  E= 1.039903D+00  Symmetry=a

 Vector   12  Occ=0.000000D+00  E= 1.081147D+00  Symmetry=a

 Vector   13  Occ=0.000000D+00  E= 1.455937D+00  Symmetry=a

 Vector   14  Occ=0.000000D+00  E= 1.482066D+00  Symmetry=a

 Vector   15  Occ=0.000000D+00  E= 1.699169D+00  Symmetry=a

 Vector   16  Occ=0.000000D+00  E= 1.866313D+00  Symmetry=a

 Vector   17  Occ=0.000000D+00  E= 1.896162D+00  Symmetry=a

 Vector   18  Occ=0.000000D+00  E= 2.348329D+00  Symmetry=a

         Total SCF energy =    -76.024297433927

 Vector    2  Occ=2.000000D+00  E=-1.339399D+00

 Vector    3  Occ=2.000000D+00  E=-7.320827D-01

 Vector    4  Occ=2.000000D+00  E=-5.701272D-01

 Vector    5  Occ=2.000000D+00  E=-5.117429D-01

 Vector    6  Occ=0.000000D+00  E=-2.569393D-02

 Vector    7  Occ=0.000000D+00  E=-2.409286D-02

 Vector    8  Occ=0.000000D+00  E=-1.419120D-02

 Vector    9  Occ=0.000000D+00  E= 4.626385D-01

 Vector   10  Occ=0.000000D+00  E= 5.121148D-01

 Vector   11  Occ=0.000000D+00  E= 1.039903D+00

 Vector   12  Occ=0.000000D+00  E= 1.081147D+00

 Vector   13  Occ=0.000000D+00  E= 1.455937D+00

 Vector   14  Occ=0.000000D+00  E= 1.482066D+00

 Vector   15  Occ=0.000000D+00  E= 1.699169D+00

       Multipole analysis of the density wrt the origin
       ------------------------------------------------

     L   x y z        total         open         nuclear
     -   - - -        -----         ----         -------
     0   0 0 0     -0.000000      0.000000     10.000000

     1   1 0 0      0.608449      0.000000     -0.000000
     1   0 1 0      0.410691      0.000000      0.000000
     1   0 0 1     -0.000000      0.000000      0.000000

     2   2 0 0     -3.974146      0.000000      2.679864
     2   1 1 0     -0.752384      0.000000     -1.315849
     2   1 0 1     -0.000000      0.000000      0.000000
     2   0 2 0     -3.467767      0.000000      3.488293
     2   0 1 1     -0.000000      0.000000      0.000000

 CCSD total energy / hartree       =       -76.238024491328630
 Total times  cpu:        7.2s     wall:        9.3s
