============================== echo of input deck ==============================
 echo
 start H2O
 title "H2O"

 memory total 24 gb

 geometry units bohr
 symmetry c1
        O  0.00000000  0.00000000  0.00000000
        H  0.00000000  1.79736375  0.00000000
        H  1.72558000 -0.64860000  0.00000000
 end

 basis spherical
   * library cc-pVDZ
 end

 mcscf
   active  8
   actelec 10
   multiplicity 1
   maxiter 40
   vectors input h2o.mos
   vectors output h2o.mos
 end

 task mcscf

 scf
   vectors input h2o.mos
   vectors output h2o-trash.mos
   noscf
 end

 tce
   2eorb
   2emet 13
   ccsd
   maxiter 300
 end

# set tce:print_integrals T
# set tce:qorb 8
# set tce:qela 5
# set tce:qelb 5

 set tce:qducc T
 set tce:nactv 3
 set tce:nonhf T
 set tce:ducc_model 6

 set tce:printtol 0.02

 task tce
================================================================================

 Output coordinates in a.u. (scale by  1.000000000 to convert to a.u.)

  No.       Tag          Charge          X              Y              Z
 ---- ---------------- ---------- -------------- -------------- --------------
    1 O                    8.0000    -0.17255800    -0.11487638     0.00000000
    2 H                    1.0000    -0.17255800     1.68248738     0.00000000
    3 H                    1.0000     1.55302200    -0.76347638     0.00000000

 Vector    1  Occ=1.999991D+00  E=-2.054314D+01  Symmetry=a

 Vector    2  Occ=1.998865D+00  E=-1.338118D+00  Symmetry=a

 Vector    3  Occ=1.983857D+00  E=-7.307667D-01  Symmetry=a

 Vector    4  Occ=1.978041D+00  E=-5.697562D-01  Symmetry=a

 Vector    5  Occ=1.976533D+00  E=-5.115557D-01  Symmetry=a

 Vector    6  Occ=2.420424D-02  E=-2.573260D-02  Symmetry=a

 Vector    7  Occ=2.277276D-02  E=-2.425697D-02  Symmetry=a

 Vector    8  Occ=1.573589D-02  E=-1.418582D-02  Symmetry=a

 Vector    9  Occ=0.000000D+00  E= 4.631850D-01  Symmetry=a

 Vector   10  Occ=0.000000D+00  E= 5.122030D-01  Symmetry=a

 Vector   11  Occ=0.000000D+00  E= 1.039799D+00  Symmetry=a

 Vector   12  Occ=0.000000D+00  E= 1.081460D+00  Symmetry=a

 Vector   13  Occ=0.000000D+00  E= 1.455384D+00  Symmetry=a

 Vector   14  Occ=0.000000D+00  E= 1.482730D+00  Symmetry=a

 Vector   15  Occ=0.000000D+00  E= 1.698860D+00  Symmetry=a

 Vector   16  Occ=0.000000D+00  E= 1.866456D+00  Symmetry=a

 Vector   17  Occ=0.000000D+00  E= 1.893677D+00  Symmetry=a

 Vector   18  Occ=0.000000D+00  E= 2.348181D+00  Symmetry=a

         Total SCF energy =    -76.024241574007

 Vector    2  Occ=2.000000D+00  E=-1.338118D+00

 Vector    3  Occ=2.000000D+00  E=-7.307667D-01

 Vector    4  Occ=2.000000D+00  E=-5.697562D-01

 Vector    5  Occ=2.000000D+00  E=-5.115557D-01

 Vector    6  Occ=0.000000D+00  E=-2.573260D-02

 Vector    7  Occ=0.000000D+00  E=-2.425697D-02

 Vector    8  Occ=0.000000D+00  E=-1.418582D-02

 Vector    9  Occ=0.000000D+00  E= 4.631850D-01

 Vector   10  Occ=0.000000D+00  E= 5.122030D-01

 Vector   11  Occ=0.000000D+00  E= 1.039799D+00

 Vector   12  Occ=0.000000D+00  E= 1.081460D+00

 Vector   13  Occ=0.000000D+00  E= 1.455384D+00

 Vector   14  Occ=0.000000D+00  E= 1.482730D+00

 Vector   15  Occ=0.000000D+00  E= 1.698860D+00

       Multipole analysis of the density wrt the origin
       ------------------------------------------------

     L   x y z        total         open         nuclear
     -   - - -        -----         ----         -------
     0   0 0 0     -0.000000      0.000000     10.000000

     1   1 0 0      0.608069      0.000000     -0.000000
     1   0 1 0      0.412262      0.000000     -0.000000
     1   0 0 1      0.000000      0.000000      0.000000

     2   2 0 0     -3.977949      0.000000      2.679864
     2   1 1 0     -0.753246      0.000000     -1.317440
     2   1 0 1      0.000000      0.000000      0.000000
     2   0 2 0     -3.461113      0.000000      3.519233
     2   0 1 1      0.000000      0.000000      0.000000

 CCSD total energy / hartree       =       -76.238142495655978
 Total times  cpu:        7.1s     wall:        9.3s
