============================== echo of input deck ==============================
 echo
 start H2O
 title "H2O"

 memory total 24 gb

 geometry units bohr
 symmetry c1
        O  0.00000000  0.00000000  0.00000000
        H  0.00000000  1.85266725  0.00000000
        H  1.72558000 -0.64860000  0.00000000
 end

 basis spherical
   * library cc-pVDZ
 end

 mcscf
   active  8
   actelec 10
   multiplicity 1
   maxiter 40
   vectors input h2o.mos
   vectors output h2o.mos
 end

 task mcscf

 scf
   vectors input h2o.mos
   vectors output h2o-trash.mos
   noscf
 end

 tce
   2eorb
   2emet 13
   ccsd
   maxiter 300
 end

# set tce:print_integrals T
# set tce:qorb 8
# set tce:qela 5
# set tce:qelb 5

 set tce:qducc T
 set tce:nactv 3
 set tce:nonhf T
 set tce:ducc_model 6

 set tce:printtol 0.02

 task tce
================================================================================

 Output coordinates in a.u. (scale by  1.000000000 to convert to a.u.)

  No.       Tag          Charge          X              Y              Z
 ---- ---------------- ---------- -------------- -------------- --------------
    1 O                    8.0000    -0.17255800    -0.12040673     0.00000000
    2 H                    1.0000    -0.17255800     1.73226053     0.00000000
    3 H                    1.0000     1.55302200    -0.76900673     0.00000000

 Vector    1  Occ=1.999991D+00  E=-2.054536D+01  Symmetry=a

 Vector    2  Occ=1.998814D+00  E=-1.330842D+00  Symmetry=a

 Vector    3  Occ=1.983681D+00  E=-7.229950D-01  Symmetry=a

 Vector    4  Occ=1.976712D+00  E=-5.675366D-01  Symmetry=a

 Vector    5  Occ=1.975903D+00  E=-5.104344D-01  Symmetry=a

 Vector    6  Occ=2.478968D-02  E=-2.618314D-02  Symmetry=a

 Vector    7  Occ=2.422471D-02  E=-2.501743D-02  Symmetry=a

 Vector    8  Occ=1.588463D-02  E=-1.414691D-02  Symmetry=a

 Vector    9  Occ=0.000000D+00  E= 4.664279D-01  Symmetry=a

 Vector   10  Occ=0.000000D+00  E= 5.126828D-01  Symmetry=a

 Vector   11  Occ=0.000000D+00  E= 1.038614D+00  Symmetry=a

 Vector   12  Occ=0.000000D+00  E= 1.084896D+00  Symmetry=a

 Vector   13  Occ=0.000000D+00  E= 1.452310D+00  Symmetry=a

 Vector   14  Occ=0.000000D+00  E= 1.486752D+00  Symmetry=a

 Vector   15  Occ=0.000000D+00  E= 1.697055D+00  Symmetry=a

 Vector   16  Occ=0.000000D+00  E= 1.867071D+00  Symmetry=a

 Vector   17  Occ=0.000000D+00  E= 1.879085D+00  Symmetry=a

 Vector   18  Occ=0.000000D+00  E= 2.336170D+00  Symmetry=a

         Total SCF energy =    -76.022888202271

 Vector    2  Occ=2.000000D+00  E=-1.330842D+00

 Vector    3  Occ=2.000000D+00  E=-7.229950D-01

 Vector    4  Occ=2.000000D+00  E=-5.675366D-01

 Vector    5  Occ=2.000000D+00  E=-5.104344D-01

 Vector    6  Occ=0.000000D+00  E=-2.618314D-02

 Vector    7  Occ=0.000000D+00  E=-2.501743D-02

 Vector    8  Occ=0.000000D+00  E=-1.414691D-02

 Vector    9  Occ=0.000000D+00  E= 4.664279D-01

 Vector   10  Occ=0.000000D+00  E= 5.126828D-01

 Vector   11  Occ=0.000000D+00  E= 1.038614D+00

 Vector   12  Occ=0.000000D+00  E= 1.084896D+00

 Vector   13  Occ=0.000000D+00  E= 1.452310D+00

 Vector   14  Occ=0.000000D+00  E= 1.486752D+00

 Vector   15  Occ=0.000000D+00  E= 1.697055D+00

       Multipole analysis of the density wrt the origin
       ------------------------------------------------

     L   x y z        total         open         nuclear
     -   - - -        -----         ----         -------
     0   0 0 0     -0.000000      0.000000     10.000000

     1   1 0 0      0.605920      0.000000     -0.000000
     1   0 1 0      0.421247      0.000000      0.000000
     1   0 0 1      0.000002      0.000000      0.000000

     2   2 0 0     -4.000567      0.000000      2.679864
     2   1 1 0     -0.758292      0.000000     -1.326983
     2   1 0 1      0.000000      0.000000      0.000000
     2   0 2 0     -3.420572      0.000000      3.708080
     2   0 1 1      0.000003      0.000000      0.000000

 CCSD total energy / hartree       =       -76.237841079354340
 Total times  cpu:       78.8s     wall:      148.5s
