============================== echo of input deck ==============================
 echo
 start H2O
 title "H2O"

 memory total 24 gb

 geometry units bohr
 symmetry c1
        O  0.00000000  0.00000000  0.00000000
        H  0.00000000  1.84345  0.00000000
        H  1.72558000 -0.64860000  0.00000000
 end

 basis spherical
   * library cc-pVDZ
 end

 mcscf
   active  8
   actelec 10
   multiplicity 1
   maxiter 40
   vectors input h2o.mos
   vectors output h2o.mos
 end

 task mcscf

 scf
   vectors input h2o.mos
   vectors output h2o-trash.mos
   noscf
 end

 tce
   2eorb
   2emet 13
   ccsd
   maxiter 300
 end

# set tce:print_integrals T
# set tce:qorb 8
# set tce:qela 5
# set tce:qelb 5

 set tce:qducc T
 set tce:nactv 3
 set tce:nonhf T
 set tce:ducc_model 6

 set tce:printtol 0.02

 task tce
================================================================================

 Output coordinates in a.u. (scale by  1.000000000 to convert to a.u.)

  No.       Tag          Charge          X              Y              Z
 ---- ---------------- ---------- -------------- -------------- --------------
    1 O                    8.0000    -0.17255800    -0.11948500     0.00000000
    2 H                    1.0000    -0.17255800     1.72396500     0.00000000
    3 H                    1.0000     1.55302200    -0.76808500     0.00000000

 Vector    1  Occ=1.999991D+00  E=-2.055882D+01  Symmetry=a

 Vector    2  Occ=1.999376D+00  E=-1.328943D+00  Symmetry=a

 Vector    3  Occ=1.997005D+00  E=-7.184159D-01  Symmetry=a

 Vector    4  Occ=1.976085D+00  E=-5.655435D-01  Symmetry=a

 Vector    5  Occ=1.975338D+00  E=-4.951614D-01  Symmetry=a

 Vector    6  Occ=2.492535D-02  E=-2.219784D-02  Symmetry=a

 Vector    7  Occ=2.416980D-02  E=-2.157934D-02  Symmetry=a

 Vector    8  Occ=3.110258D-03  E=-1.378988D-03  Symmetry=a

 Vector    9  Occ=0.000000D+00  E= 6.405418D-01  Symmetry=a

 Vector   10  Occ=0.000000D+00  E= 1.092114D+00  Symmetry=a

 Vector   11  Occ=0.000000D+00  E= 1.104744D+00  Symmetry=a

 Vector   12  Occ=0.000000D+00  E= 1.196571D+00  Symmetry=a

 Vector   13  Occ=0.000000D+00  E= 1.457072D+00  Symmetry=a

 Vector   14  Occ=0.000000D+00  E= 1.480422D+00  Symmetry=a

 Vector   15  Occ=0.000000D+00  E= 1.703605D+00  Symmetry=a

 Vector   16  Occ=0.000000D+00  E= 1.871101D+00  Symmetry=a

 Vector   17  Occ=0.000000D+00  E= 1.885609D+00  Symmetry=a

 Vector   18  Occ=0.000000D+00  E= 2.325044D+00  Symmetry=a

         Total SCF energy =    -76.023278797527

 Vector    2  Occ=2.000000D+00  E=-1.328943D+00

 Vector    3  Occ=2.000000D+00  E=-7.184159D-01

 Vector    4  Occ=2.000000D+00  E=-5.655435D-01

 Vector    5  Occ=2.000000D+00  E=-4.951614D-01

 Vector    6  Occ=0.000000D+00  E=-2.219784D-02

 Vector    7  Occ=0.000000D+00  E=-2.157934D-02

 Vector    8  Occ=0.000000D+00  E=-1.378988D-03

 Vector    9  Occ=0.000000D+00  E= 6.405418D-01

 Vector   10  Occ=0.000000D+00  E= 1.092114D+00

 Vector   11  Occ=0.000000D+00  E= 1.104744D+00

 Vector   12  Occ=0.000000D+00  E= 1.196571D+00

 Vector   13  Occ=0.000000D+00  E= 1.457072D+00

 Vector   14  Occ=0.000000D+00  E= 1.480422D+00

 Vector   15  Occ=0.000000D+00  E= 1.703605D+00

       Multipole analysis of the density wrt the origin
       ------------------------------------------------

     L   x y z        total         open         nuclear
     -   - - -        -----         ----         -------
     0   0 0 0     -0.000000      0.000000     10.000000

     1   1 0 0      0.601157      0.000000     -0.000000
     1   0 1 0      0.416262      0.000000      0.000000
     1   0 0 1     -0.000001      0.000000      0.000000

     2   2 0 0     -4.000679      0.000000      2.679864
     2   1 1 0     -0.749799      0.000000     -1.325392
     2   1 0 1     -0.000002      0.000000      0.000000
     2   0 2 0     -3.437020      0.000000      3.676223
     2   0 1 1     -0.000001      0.000000      0.000000

 CCSD total energy / hartree       =       -76.238038501803501
 Total times  cpu:        9.1s     wall:       10.8s
