============================== echo of input deck ==============================
 echo
 start H2O
 title "H2O"

 memory total 24 gb

 geometry units bohr
 symmetry c1
        O  0.00000000  0.00000000  0.00000000
        H  0.00000000  1.98170875  0.00000000
        H  1.72558000 -0.64860000  0.00000000
 end

 basis spherical
   * library cc-pVDZ
 end

 mcscf
   active  8
   actelec 10
   multiplicity 1
   maxiter 40
   vectors input h2o.mos
   vectors output h2o.mos
 end

 task mcscf

 scf
   vectors input h2o.mos
   vectors output h2o-trash.mos
   noscf
 end

 tce
   2eorb
   2emet 13
   ccsd
   maxiter 300
 end

# set tce:print_integrals T
# set tce:qorb 8
# set tce:qela 5
# set tce:qelb 5

 set tce:qducc T
 set tce:nactv 3
 set tce:nonhf T
 set tce:ducc_model 6

 set tce:printtol 0.02

 task tce
================================================================================

 Output coordinates in a.u. (scale by  1.000000000 to convert to a.u.)

  No.       Tag          Charge          X              Y              Z
 ---- ---------------- ---------- -------------- -------------- --------------
    1 O                    8.0000    -0.17255800    -0.13331088     0.00000000
    2 H                    1.0000    -0.17255800     1.84839788     0.00000000
    3 H                    1.0000     1.55302200    -0.78191088     0.00000000

 Vector    1  Occ=1.999991D+00  E=-2.055034D+01  Symmetry=a

 Vector    2  Occ=1.998683D+00  E=-1.316541D+00  Symmetry=a

 Vector    3  Occ=1.983313D+00  E=-7.061292D-01  Symmetry=a

 Vector    4  Occ=1.976043D+00  E=-5.620994D-01  Symmetry=a

 Vector    5  Occ=1.971335D+00  E=-5.085903D-01  Symmetry=a

 Vector    6  Occ=2.966229D-02  E=-2.888191D-02  Symmetry=a

 Vector    7  Occ=2.478519D-02  E=-2.547416D-02  Symmetry=a

 Vector    8  Occ=1.618838D-02  E=-1.403215D-02  Symmetry=a

 Vector    9  Occ=0.000000D+00  E= 4.742492D-01  Symmetry=a

 Vector   10  Occ=0.000000D+00  E= 5.153047D-01  Symmetry=a

 Vector   11  Occ=0.000000D+00  E= 1.036602D+00  Symmetry=a

 Vector   12  Occ=0.000000D+00  E= 1.098971D+00  Symmetry=a

 Vector   13  Occ=0.000000D+00  E= 1.446723D+00  Symmetry=a

 Vector   14  Occ=0.000000D+00  E= 1.496824D+00  Symmetry=a

 Vector   15  Occ=0.000000D+00  E= 1.692737D+00  Symmetry=a

 Vector   16  Occ=0.000000D+00  E= 1.844449D+00  Symmetry=a

 Vector   17  Occ=0.000000D+00  E= 1.866448D+00  Symmetry=a

 Vector   18  Occ=0.000000D+00  E= 2.215534D+00  Symmetry=a

         Total SCF energy =    -76.014331174442

 Vector    2  Occ=2.000000D+00  E=-1.316541D+00

 Vector    3  Occ=2.000000D+00  E=-7.061292D-01

 Vector    4  Occ=2.000000D+00  E=-5.620994D-01

 Vector    5  Occ=2.000000D+00  E=-5.085903D-01

 Vector    6  Occ=0.000000D+00  E=-2.888191D-02

 Vector    7  Occ=0.000000D+00  E=-2.547416D-02

 Vector    8  Occ=0.000000D+00  E=-1.403215D-02

 Vector    9  Occ=0.000000D+00  E= 4.742492D-01

 Vector   10  Occ=0.000000D+00  E= 5.153047D-01

 Vector   11  Occ=0.000000D+00  E= 1.036602D+00

 Vector   12  Occ=0.000000D+00  E= 1.098971D+00

 Vector   13  Occ=0.000000D+00  E= 1.446723D+00

 Vector   14  Occ=0.000000D+00  E= 1.496824D+00

 Vector   15  Occ=0.000000D+00  E= 1.692737D+00

       Multipole analysis of the density wrt the origin
       ------------------------------------------------

     L   x y z        total         open         nuclear
     -   - - -        -----         ----         -------
     0   0 0 0     -0.000000      0.000000     10.000000

     1   1 0 0      0.601520      0.000000     -0.000000
     1   0 1 0      0.438763      0.000000      0.000000
     1   0 0 1     -0.000000      0.000000      0.000000

     2   2 0 0     -4.051938      0.000000      2.679864
     2   1 1 0     -0.768885      0.000000     -1.349250
     2   1 0 1      0.000000      0.000000      0.000000
     2   0 2 0     -3.323785      0.000000      4.170134
     2   0 1 1      0.000000      0.000000      0.000000

 CCSD total energy / hartree       =       -76.231814809078728
 Total times  cpu:        6.8s     wall:        8.9s
