============================== echo of input deck ==============================
 echo
 start H2O
 title "H2O"

 memory total 24 gb

 geometry units bohr
 symmetry c1
        O  0.00000000  0.00000000  0.00000000
        H  0.00000000  2.0093605  0.00000000
        H  1.72558000 -0.64860000  0.00000000
 end

 basis spherical
   * library cc-pVDZ
 end

 mcscf
   active  8
   actelec 10
   multiplicity 1
   maxiter 40
   vectors input h2o.mos
   vectors output h2o.mos
 end

 task mcscf

 scf
   vectors input h2o.mos
   vectors output h2o-trash.mos
   noscf
 end

 tce
   2eorb
   2emet 13
   ccsd
   maxiter 300
 end

# set tce:print_integrals T
# set tce:qorb 8
# set tce:qela 5
# set tce:qelb 5

 set tce:qducc T
 set tce:nactv 3
 set tce:nonhf T
 set tce:ducc_model 6

 set tce:printtol 0.02

 task tce
================================================================================

 Output coordinates in a.u. (scale by  1.000000000 to convert to a.u.)

  No.       Tag          Charge          X              Y              Z
 ---- ---------------- ---------- -------------- -------------- --------------
    1 O                    8.0000    -0.17255800    -0.13607605     0.00000000
    2 H                    1.0000    -0.17255800     1.87328445     0.00000000
    3 H                    1.0000     1.55302200    -0.78467605     0.00000000

 Vector    1  Occ=1.999991D+00  E=-2.055137D+01  Symmetry=a

 Vector    2  Occ=1.998653D+00  E=-1.313912D+00  Symmetry=a

 Vector    3  Occ=1.983242D+00  E=-7.027499D-01  Symmetry=a

 Vector    4  Occ=1.975945D+00  E=-5.608981D-01  Symmetry=a

 Vector    5  Occ=1.970173D+00  E=-5.082776D-01  Symmetry=a

 Vector    6  Occ=3.087069D-02  E=-2.955597D-02  Symmetry=a

 Vector    7  Occ=2.488085D-02  E=-2.550998D-02  Symmetry=a

 Vector    8  Occ=1.624450D-02  E=-1.400206D-02  Symmetry=a

 Vector    9  Occ=0.000000D+00  E= 4.757477D-01  Symmetry=a

 Vector   10  Occ=0.000000D+00  E= 5.159861D-01  Symmetry=a

 Vector   11  Occ=0.000000D+00  E= 1.035973D+00  Symmetry=a

 Vector   12  Occ=0.000000D+00  E= 1.103147D+00  Symmetry=a

 Vector   13  Occ=0.000000D+00  E= 1.445803D+00  Symmetry=a

 Vector   14  Occ=0.000000D+00  E= 1.498997D+00  Symmetry=a

 Vector   15  Occ=0.000000D+00  E= 1.691748D+00  Symmetry=a

 Vector   16  Occ=0.000000D+00  E= 1.837379D+00  Symmetry=a

 Vector   17  Occ=0.000000D+00  E= 1.864949D+00  Symmetry=a

 Vector   18  Occ=0.000000D+00  E= 2.192954D+00  Symmetry=a

         Total SCF energy =    -76.011747577974

 Vector    2  Occ=2.000000D+00  E=-1.313912D+00

 Vector    3  Occ=2.000000D+00  E=-7.027499D-01

 Vector    4  Occ=2.000000D+00  E=-5.608981D-01

 Vector    5  Occ=2.000000D+00  E=-5.082776D-01

 Vector    6  Occ=0.000000D+00  E=-2.955597D-02

 Vector    7  Occ=0.000000D+00  E=-2.550998D-02

 Vector    8  Occ=0.000000D+00  E=-1.400206D-02

 Vector    9  Occ=0.000000D+00  E= 4.757477D-01

 Vector   10  Occ=0.000000D+00  E= 5.159861D-01

 Vector   11  Occ=0.000000D+00  E= 1.035973D+00

 Vector   12  Occ=0.000000D+00  E= 1.103147D+00

 Vector   13  Occ=0.000000D+00  E= 1.445803D+00

 Vector   14  Occ=0.000000D+00  E= 1.498997D+00

 Vector   15  Occ=0.000000D+00  E= 1.691748D+00

       Multipole analysis of the density wrt the origin
       ------------------------------------------------

     L   x y z        total         open         nuclear
     -   - - -        -----         ----         -------
     0   0 0 0     -0.000000      0.000000     10.000000

     1   1 0 0      0.600721      0.000000     -0.000000
     1   0 1 0      0.441805      0.000000      0.000000
     1   0 0 1     -0.000000      0.000000      0.000000

     2   2 0 0     -4.062636      0.000000      2.679864
     2   1 1 0     -0.770958      0.000000     -1.354021
     2   1 0 1      0.000000      0.000000      0.000000
     2   0 2 0     -3.302948      0.000000      4.273045
     2   0 1 1      0.000000      0.000000      0.000000

 CCSD total energy / hartree       =       -76.229789230708860
 Total times  cpu:        7.0s     wall:        8.6s
