============================== echo of input deck ==============================
 echo
 start H2O
 title "H2O"

 memory total 24 gb

 geometry units bohr
 symmetry c1
        O  0.00000000  0.00000000  0.00000000
        H  0.00000000  2.03701225  0.00000000
        H  1.72558000 -0.64860000  0.00000000
 end

 basis spherical
   * library cc-pVDZ
 end

 mcscf
   active  8
   actelec 10
   multiplicity 1
   maxiter 40
   vectors input h2o.mos
   vectors output h2o.mos
 end

 task mcscf

 scf
   vectors input h2o.mos
   vectors output h2o-trash.mos
   noscf
 end

 tce
   2eorb
   2emet 13
   ccsd
   maxiter 300
 end

# set tce:print_integrals T
# set tce:qorb 8
# set tce:qela 5
# set tce:qelb 5

 set tce:qducc T
 set tce:nactv 3
 set tce:nonhf T
 set tce:ducc_model 6

 set tce:printtol 0.02

 task tce
================================================================================

 Output coordinates in a.u. (scale by  1.000000000 to convert to a.u.)

  No.       Tag          Charge          X              Y              Z
 ---- ---------------- ---------- -------------- -------------- --------------
    1 O                    8.0000    -0.17255800    -0.13884123     0.00000000
    2 H                    1.0000    -0.17255800     1.89817103     0.00000000
    3 H                    1.0000     1.55302200    -0.78744123     0.00000000

 Vector    1  Occ=1.999991D+00  E=-2.055239D+01  Symmetry=a

 Vector    2  Occ=1.998623D+00  E=-1.311427D+00  Symmetry=a

 Vector    3  Occ=1.983175D+00  E=-6.994623D-01  Symmetry=a

 Vector    4  Occ=1.975849D+00  E=-5.596759D-01  Symmetry=a

 Vector    5  Occ=1.968951D+00  E=-5.079985D-01  Symmetry=a

 Vector    6  Occ=3.213874D-02  E=-3.025016D-02  Symmetry=a

 Vector    7  Occ=2.497565D-02  E=-2.554124D-02  Symmetry=a

 Vector    8  Occ=1.629717D-02  E=-1.397033D-02  Symmetry=a

 Vector    9  Occ=0.000000D+00  E= 4.771848D-01  Symmetry=a

 Vector   10  Occ=0.000000D+00  E= 5.167323D-01  Symmetry=a

 Vector   11  Occ=0.000000D+00  E= 1.035367D+00  Symmetry=a

 Vector   12  Occ=0.000000D+00  E= 1.107626D+00  Symmetry=a

 Vector   13  Occ=0.000000D+00  E= 1.444977D+00  Symmetry=a

 Vector   14  Occ=0.000000D+00  E= 1.501166D+00  Symmetry=a

 Vector   15  Occ=0.000000D+00  E= 1.690725D+00  Symmetry=a

 Vector   16  Occ=0.000000D+00  E= 1.830325D+00  Symmetry=a

 Vector   17  Occ=0.000000D+00  E= 1.862797D+00  Symmetry=a

 Vector   18  Occ=0.000000D+00  E= 2.171914D+00  Symmetry=a

         Total SCF energy =    -76.008956946151

 Vector    2  Occ=2.000000D+00  E=-1.311427D+00

 Vector    3  Occ=2.000000D+00  E=-6.994623D-01

 Vector    4  Occ=2.000000D+00  E=-5.596759D-01

 Vector    5  Occ=2.000000D+00  E=-5.079985D-01

 Vector    6  Occ=0.000000D+00  E=-3.025016D-02

 Vector    7  Occ=0.000000D+00  E=-2.554124D-02

 Vector    8  Occ=0.000000D+00  E=-1.397033D-02

 Vector    9  Occ=0.000000D+00  E= 4.771848D-01

 Vector   10  Occ=0.000000D+00  E= 5.167323D-01

 Vector   11  Occ=0.000000D+00  E= 1.035367D+00

 Vector   12  Occ=0.000000D+00  E= 1.107626D+00

 Vector   13  Occ=0.000000D+00  E= 1.444977D+00

 Vector   14  Occ=0.000000D+00  E= 1.501166D+00

 Vector   15  Occ=0.000000D+00  E= 1.690725D+00

       Multipole analysis of the density wrt the origin
       ------------------------------------------------

     L   x y z        total         open         nuclear
     -   - - -        -----         ----         -------
     0   0 0 0     -0.000000      0.000000     10.000000

     1   1 0 0      0.599939      0.000000     -0.000000
     1   0 1 0      0.444581      0.000000      0.000000
     1   0 0 1     -0.000000      0.000000      0.000000

     2   2 0 0     -4.073259      0.000000      2.679864
     2   1 1 0     -0.772900      0.000000     -1.358793
     2   1 0 1      0.000000      0.000000      0.000000
     2   0 2 0     -3.282191      0.000000      4.377332
     2   0 1 1      0.000000      0.000000      0.000000

 CCSD total energy / hartree       =       -76.227563895850508
 Total times  cpu:        6.3s     wall:        7.9s
