============================== echo of input deck ==============================
 echo
 start H2O
 title "H2O"

 memory total 24 gb

 geometry units bohr
 symmetry c1
        O  0.00000000  0.00000000  0.00000000
        H  0.00000000  2.0462295  0.00000000
        H  1.72558000 -0.64860000  0.00000000
 end

 basis spherical
   * library cc-pVDZ
 end

 mcscf
   active  8
   actelec 10
   multiplicity 1
   maxiter 40
   vectors input h2o.mos
   vectors output h2o.mos
 end

 task mcscf

 scf
   vectors input h2o.mos
   vectors output h2o-trash.mos
   noscf
 end

 tce
   2eorb
   2emet 13
   ccsd
   maxiter 300
 end

# set tce:print_integrals T
# set tce:qorb 8
# set tce:qela 5
# set tce:qelb 5

 set tce:qducc T
 set tce:nactv 3
 set tce:nonhf T
 set tce:ducc_model 6

 set tce:printtol 0.02

 task tce
================================================================================

 Output coordinates in a.u. (scale by  1.000000000 to convert to a.u.)

  No.       Tag          Charge          X              Y              Z
 ---- ---------------- ---------- -------------- -------------- --------------
    1 O                    8.0000    -0.17255800    -0.13976295     0.00000000
    2 H                    1.0000    -0.17255800     1.90646655     0.00000000
    3 H                    1.0000     1.55302200    -0.78836295     0.00000000

 Vector    1  Occ=1.999991D+00  E=-2.055273D+01  Symmetry=a

 Vector    2  Occ=1.998613D+00  E=-1.310630D+00  Symmetry=a

 Vector    3  Occ=1.983153D+00  E=-6.983873D-01  Symmetry=a

 Vector    4  Occ=1.975817D+00  E=-5.592640D-01  Symmetry=a

 Vector    5  Occ=1.968530D+00  E=-5.079131D-01  Symmetry=a

 Vector    6  Occ=3.257483D-02  E=-3.048591D-02  Symmetry=a

 Vector    7  Occ=2.500699D-02  E=-2.555095D-02  Symmetry=a

 Vector    8  Occ=1.631394D-02  E=-1.395937D-02  Symmetry=a

 Vector    9  Occ=0.000000D+00  E= 4.776483D-01  Symmetry=a

 Vector   10  Occ=0.000000D+00  E= 5.169961D-01  Symmetry=a

 Vector   11  Occ=0.000000D+00  E= 1.035168D+00  Symmetry=a

 Vector   12  Occ=0.000000D+00  E= 1.109184D+00  Symmetry=a

 Vector   13  Occ=0.000000D+00  E= 1.444722D+00  Symmetry=a

 Vector   14  Occ=0.000000D+00  E= 1.501888D+00  Symmetry=a

 Vector   15  Occ=0.000000D+00  E= 1.690376D+00  Symmetry=a

 Vector   16  Occ=0.000000D+00  E= 1.827978D+00  Symmetry=a

 Vector   17  Occ=0.000000D+00  E= 1.861914D+00  Symmetry=a

 Vector   18  Occ=0.000000D+00  E= 2.165261D+00  Symmetry=a

         Total SCF energy =    -76.007984738075

 Vector    2  Occ=2.000000D+00  E=-1.310630D+00

 Vector    3  Occ=2.000000D+00  E=-6.983873D-01

 Vector    4  Occ=2.000000D+00  E=-5.592640D-01

 Vector    5  Occ=2.000000D+00  E=-5.079131D-01

 Vector    6  Occ=0.000000D+00  E=-3.048591D-02

 Vector    7  Occ=0.000000D+00  E=-2.555095D-02

 Vector    8  Occ=0.000000D+00  E=-1.395937D-02

 Vector    9  Occ=0.000000D+00  E= 4.776483D-01

 Vector   10  Occ=0.000000D+00  E= 5.169961D-01

 Vector   11  Occ=0.000000D+00  E= 1.035168D+00

 Vector   12  Occ=0.000000D+00  E= 1.109184D+00

 Vector   13  Occ=0.000000D+00  E= 1.444722D+00

 Vector   14  Occ=0.000000D+00  E= 1.501888D+00

 Vector   15  Occ=0.000000D+00  E= 1.690376D+00

       Multipole analysis of the density wrt the origin
       ------------------------------------------------

     L   x y z        total         open         nuclear
     -   - - -        -----         ----         -------
     0   0 0 0     -0.000000      0.000000     10.000000

     1   1 0 0      0.599687      0.000000     -0.000000
     1   0 1 0      0.445444      0.000000      0.000000
     1   0 0 1     -0.000000      0.000000      0.000000

     2   2 0 0     -4.076776      0.000000      2.679864
     2   1 1 0     -0.773526      0.000000     -1.360383
     2   1 0 1      0.000000      0.000000      0.000000
     2   0 2 0     -3.275295      0.000000      4.412400
     2   0 1 1      0.000000      0.000000      0.000000

 CCSD total energy / hartree       =       -76.226781674561849
 Total times  cpu:        6.4s     wall:        7.9s
