============================== echo of input deck ==============================
 echo
 start H2O
 title "H2O"

 memory total 24 gb

 geometry units bohr
 symmetry c1
        O  0.00000000  0.00000000  0.00000000
        H  0.00000000  2.05544675  0.00000000
        H  1.72558000 -0.64860000  0.00000000
 end

 basis spherical
   * library cc-pVDZ
 end

 mcscf
   active  8
   actelec 10
   multiplicity 1
   maxiter 40
   vectors input h2o.mos
   vectors output h2o.mos
 end

 task mcscf

 scf
   vectors input h2o.mos
   vectors output h2o-trash.mos
   noscf
 end

 tce
   2eorb
   2emet 13
   ccsd
   maxiter 300
 end

# set tce:print_integrals T
# set tce:qorb 8
# set tce:qela 5
# set tce:qelb 5

 set tce:qducc T
 set tce:nactv 3
 set tce:nonhf T
 set tce:ducc_model 6

 set tce:printtol 0.02

 task tce
================================================================================

 Output coordinates in a.u. (scale by  1.000000000 to convert to a.u.)

  No.       Tag          Charge          X              Y              Z
 ---- ---------------- ---------- -------------- -------------- --------------
    1 O                    8.0000    -0.17255800    -0.14068468     0.00000000
    2 H                    1.0000    -0.17255800     1.91476208     0.00000000
    3 H                    1.0000     1.55302200    -0.78928468     0.00000000

 Vector    1  Occ=1.999991D+00  E=-2.055307D+01  Symmetry=a

 Vector    2  Occ=1.998602D+00  E=-1.309848D+00  Symmetry=a

 Vector    3  Occ=1.983132D+00  E=-6.973230D-01  Symmetry=a

 Vector    4  Occ=1.975786D+00  E=-5.588495D-01  Symmetry=a

 Vector    5  Occ=1.968102D+00  E=-5.078316D-01  Symmetry=a

 Vector    6  Occ=3.301786D-02  E=-3.072381D-02  Symmetry=a

 Vector    7  Occ=2.503820D-02  E=-2.556036D-02  Symmetry=a

 Vector    8  Occ=1.633032D-02  E=-1.394824D-02  Symmetry=a

 Vector    9  Occ=0.000000D+00  E= 4.781040D-01  Symmetry=a

 Vector   10  Occ=0.000000D+00  E= 5.172678D-01  Symmetry=a

 Vector   11  Occ=0.000000D+00  E= 1.034973D+00  Symmetry=a

 Vector   12  Occ=0.000000D+00  E= 1.110773D+00  Symmetry=a

 Vector   13  Occ=0.000000D+00  E= 1.444476D+00  Symmetry=a

 Vector   14  Occ=0.000000D+00  E= 1.502609D+00  Symmetry=a

 Vector   15  Occ=0.000000D+00  E= 1.690023D+00  Symmetry=a

 Vector   16  Occ=0.000000D+00  E= 1.825634D+00  Symmetry=a

 Vector   17  Occ=0.000000D+00  E= 1.860939D+00  Symmetry=a

 Vector   18  Occ=0.000000D+00  E= 2.158795D+00  Symmetry=a

         Total SCF energy =    -76.006992828328

 Vector    2  Occ=2.000000D+00  E=-1.309848D+00

 Vector    3  Occ=2.000000D+00  E=-6.973230D-01

 Vector    4  Occ=2.000000D+00  E=-5.588495D-01

 Vector    5  Occ=2.000000D+00  E=-5.078316D-01

 Vector    6  Occ=0.000000D+00  E=-3.072381D-02

 Vector    7  Occ=0.000000D+00  E=-2.556036D-02

 Vector    8  Occ=0.000000D+00  E=-1.394824D-02

 Vector    9  Occ=0.000000D+00  E= 4.781040D-01

 Vector   10  Occ=0.000000D+00  E= 5.172678D-01

 Vector   11  Occ=0.000000D+00  E= 1.034973D+00

 Vector   12  Occ=0.000000D+00  E= 1.110773D+00

 Vector   13  Occ=0.000000D+00  E= 1.444476D+00

 Vector   14  Occ=0.000000D+00  E= 1.502609D+00

 Vector   15  Occ=0.000000D+00  E= 1.690023D+00

       Multipole analysis of the density wrt the origin
       ------------------------------------------------

     L   x y z        total         open         nuclear
     -   - - -        -----         ----         -------
     0   0 0 0     -0.000000      0.000000     10.000000

     1   1 0 0      0.599440      0.000000     -0.000000
     1   0 1 0      0.446275      0.000000      0.000000
     1   0 0 1     -0.000000      0.000000      0.000000

     2   2 0 0     -4.080281      0.000000      2.679864
     2   1 1 0     -0.774142      0.000000     -1.361974
     2   1 0 1      0.000000      0.000000      0.000000
     2   0 2 0     -3.268414      0.000000      4.447622
     2   0 1 1      0.000000      0.000000      0.000000

 CCSD total energy / hartree       =       -76.225980559334062
 Total times  cpu:        6.3s     wall:        7.9s
