============================== echo of input deck ==============================
 echo
 start H2O
 title "H2O"

 memory total 24 gb

 geometry units bohr
 symmetry c1
        O  0.00000000  0.00000000  0.00000000
        H  0.00000000  2.064664  0.00000000
        H  1.72558000 -0.64860000  0.00000000
 end

 basis spherical
   * library cc-pVDZ
 end

 mcscf
   active  8
   actelec 10
   multiplicity 1
   maxiter 40
   vectors input h2o.mos
   vectors output h2o.mos
 end

 task mcscf

 scf
   vectors input h2o.mos
   vectors output h2o-trash.mos
   noscf
 end

 tce
   2eorb
   2emet 13
   ccsd
   maxiter 300
 end

# set tce:print_integrals T
# set tce:qorb 8
# set tce:qela 5
# set tce:qelb 5

 set tce:qducc T
 set tce:nactv 3
 set tce:nonhf T
 set tce:ducc_model 6

 set tce:printtol 0.02

 task tce
================================================================================

 Output coordinates in a.u. (scale by  1.000000000 to convert to a.u.)

  No.       Tag          Charge          X              Y              Z
 ---- ---------------- ---------- -------------- -------------- --------------
    1 O                    8.0000    -0.17255800    -0.14160640     0.00000000
    2 H                    1.0000    -0.17255800     1.92305760     0.00000000
    3 H                    1.0000     1.55302200    -0.79020640     0.00000000

 Vector    1  Occ=1.999991D+00  E=-2.055341D+01  Symmetry=a

 Vector    2  Occ=1.998592D+00  E=-1.309081D+00  Symmetry=a

 Vector    3  Occ=1.983111D+00  E=-6.962694D-01  Symmetry=a

 Vector    4  Occ=1.975755D+00  E=-5.584324D-01  Symmetry=a

 Vector    5  Occ=1.967667D+00  E=-5.077539D-01  Symmetry=a

 Vector    6  Occ=3.346798D-02  E=-3.096388D-02  Symmetry=a

 Vector    7  Occ=2.506927D-02  E=-2.556951D-02  Symmetry=a

 Vector    8  Occ=1.634629D-02  E=-1.393692D-02  Symmetry=a

 Vector    9  Occ=0.000000D+00  E= 4.785518D-01  Symmetry=a

 Vector   10  Occ=0.000000D+00  E= 5.175475D-01  Symmetry=a

 Vector   11  Occ=0.000000D+00  E= 1.034782D+00  Symmetry=a

 Vector   12  Occ=0.000000D+00  E= 1.112391D+00  Symmetry=a

 Vector   13  Occ=0.000000D+00  E= 1.444241D+00  Symmetry=a

 Vector   14  Occ=0.000000D+00  E= 1.503328D+00  Symmetry=a

 Vector   15  Occ=0.000000D+00  E= 1.689665D+00  Symmetry=a

 Vector   16  Occ=0.000000D+00  E= 1.823291D+00  Symmetry=a

 Vector   17  Occ=0.000000D+00  E= 1.859865D+00  Symmetry=a

 Vector   18  Occ=0.000000D+00  E= 2.152520D+00  Symmetry=a

         Total SCF energy =    -76.005981959029

 Vector    2  Occ=2.000000D+00  E=-1.309081D+00

 Vector    3  Occ=2.000000D+00  E=-6.962694D-01

 Vector    4  Occ=2.000000D+00  E=-5.584324D-01

 Vector    5  Occ=2.000000D+00  E=-5.077539D-01

 Vector    6  Occ=0.000000D+00  E=-3.096388D-02

 Vector    7  Occ=0.000000D+00  E=-2.556951D-02

 Vector    8  Occ=0.000000D+00  E=-1.393692D-02

 Vector    9  Occ=0.000000D+00  E= 4.785518D-01

 Vector   10  Occ=0.000000D+00  E= 5.175475D-01

 Vector   11  Occ=0.000000D+00  E= 1.034782D+00

 Vector   12  Occ=0.000000D+00  E= 1.112391D+00

 Vector   13  Occ=0.000000D+00  E= 1.444241D+00

 Vector   14  Occ=0.000000D+00  E= 1.503328D+00

 Vector   15  Occ=0.000000D+00  E= 1.689665D+00

       Multipole analysis of the density wrt the origin
       ------------------------------------------------

     L   x y z        total         open         nuclear
     -   - - -        -----         ----         -------
     0   0 0 0     -0.000000      0.000000     10.000000

     1   1 0 0      0.599197      0.000000     -0.000000
     1   0 1 0      0.447073      0.000000      0.000000
     1   0 0 1     -0.000000      0.000000      0.000000

     2   2 0 0     -4.083774      0.000000      2.679864
     2   1 1 0     -0.774746      0.000000     -1.363564
     2   1 0 1      0.000000      0.000000      0.000000
     2   0 2 0     -3.261549      0.000000      4.482996
     2   0 1 1      0.000000      0.000000      0.000000

 CCSD total energy / hartree       =       -76.225161312374496
 Total times  cpu:        6.6s     wall:        8.0s
