============================== echo of input deck ==============================
 echo
 start H2O
 title "H2O"

 memory total 24 gb

 geometry units bohr
 symmetry c1
        O  0.00000000  0.00000000  0.00000000
        H  0.00000000  2.0830985  0.00000000
        H  1.72558000 -0.64860000  0.00000000
 end

 basis spherical
   * library cc-pVDZ
 end

 mcscf
   active  8
   actelec 10
   multiplicity 1
   maxiter 40
   vectors input h2o.mos
   vectors output h2o.mos
 end

 task mcscf

 scf
   vectors input h2o.mos
   vectors output h2o-trash.mos
   noscf
 end

 tce
   2eorb
   2emet 13
   ccsd
   maxiter 300
 end

# set tce:print_integrals T
# set tce:qorb 8
# set tce:qela 5
# set tce:qelb 5

 set tce:qducc T
 set tce:nactv 3
 set tce:nonhf T
 set tce:ducc_model 6

 set tce:printtol 0.02

 task tce
================================================================================

 Output coordinates in a.u. (scale by  1.000000000 to convert to a.u.)

  No.       Tag          Charge          X              Y              Z
 ---- ---------------- ---------- -------------- -------------- --------------
    1 O                    8.0000    -0.17255800    -0.14344985     0.00000000
    2 H                    1.0000    -0.17255800     1.93964865     0.00000000
    3 H                    1.0000     1.55302200    -0.79204985     0.00000000

 Vector    1  Occ=1.999991D+00  E=-2.055408D+01  Symmetry=a

 Vector    2  Occ=1.998571D+00  E=-1.307592D+00  Symmetry=a

 Vector    3  Occ=1.983071D+00  E=-6.941949D-01  Symmetry=a

 Vector    4  Occ=1.975693D+00  E=-5.575901D-01  Symmetry=a

 Vector    5  Occ=1.966776D+00  E=-5.076100D-01  Symmetry=a

 Vector    6  Occ=3.439006D-02  E=-3.145054D-02  Symmetry=a

 Vector    7  Occ=2.513103D-02  E=-2.558711D-02  Symmetry=a

 Vector    8  Occ=1.637701D-02  E=-1.391377D-02  Symmetry=a

 Vector    9  Occ=0.000000D+00  E= 4.794231D-01  Symmetry=a

 Vector   10  Occ=0.000000D+00  E= 5.181315D-01  Symmetry=a

 Vector   11  Occ=0.000000D+00  E= 1.034414D+00  Symmetry=a

 Vector   12  Occ=0.000000D+00  E= 1.115709D+00  Symmetry=a

 Vector   13  Occ=0.000000D+00  E= 1.443800D+00  Symmetry=a

 Vector   14  Occ=0.000000D+00  E= 1.504762D+00  Symmetry=a

 Vector   15  Occ=0.000000D+00  E= 1.688935D+00  Symmetry=a

 Vector   16  Occ=0.000000D+00  E= 1.818611D+00  Symmetry=a

 Vector   17  Occ=0.000000D+00  E= 1.857405D+00  Symmetry=a

 Vector   18  Occ=0.000000D+00  E= 2.140558D+00  Symmetry=a

         Total SCF energy =    -76.003906208017

 Vector    2  Occ=2.000000D+00  E=-1.307592D+00

 Vector    3  Occ=2.000000D+00  E=-6.941949D-01

 Vector    4  Occ=2.000000D+00  E=-5.575901D-01

 Vector    5  Occ=2.000000D+00  E=-5.076100D-01

 Vector    6  Occ=0.000000D+00  E=-3.145054D-02

 Vector    7  Occ=0.000000D+00  E=-2.558711D-02

 Vector    8  Occ=0.000000D+00  E=-1.391377D-02

 Vector    9  Occ=0.000000D+00  E= 4.794231D-01

 Vector   10  Occ=0.000000D+00  E= 5.181315D-01

 Vector   11  Occ=0.000000D+00  E= 1.034414D+00

 Vector   12  Occ=0.000000D+00  E= 1.115709D+00

 Vector   13  Occ=0.000000D+00  E= 1.443800D+00

 Vector   14  Occ=0.000000D+00  E= 1.504762D+00

 Vector   15  Occ=0.000000D+00  E= 1.688935D+00

       Multipole analysis of the density wrt the origin
       ------------------------------------------------

     L   x y z        total         open         nuclear
     -   - - -        -----         ----         -------
     0   0 0 0     -0.000000      0.000000     10.000000

     1   1 0 0      0.598724      0.000000     -0.000000
     1   0 1 0      0.448569      0.000000      0.000000
     1   0 0 1     -0.000000      0.000000      0.000000

     2   2 0 0     -4.090723      0.000000      2.679864
     2   1 1 0     -0.775922      0.000000     -1.366745
     2   1 0 1      0.000000      0.000000      0.000000
     2   0 2 0     -3.247877      0.000000      4.554203
     2   0 1 1      0.000000      0.000000      0.000000

 CCSD total energy / hartree       =       -76.223471363983521
 Total times  cpu:        6.3s     wall:        7.8s
