============================== echo of input deck ==============================
 echo
 start H2O
 title "H2O"

 memory total 24 gb

 geometry units bohr
 symmetry c1
        O  0.00000000  0.00000000  0.00000000
        H  0.00000000  2.09231575  0.00000000
        H  1.72558000 -0.64860000  0.00000000
 end

 basis spherical
   * library cc-pVDZ
 end

 mcscf
   active  8
   actelec 10
   multiplicity 1
   maxiter 40
   vectors input h2o.mos
   vectors output h2o.mos
 end

 task mcscf

 scf
   vectors input h2o.mos
   vectors output h2o-trash.mos
   noscf
 end

 tce
   2eorb
   2emet 13
   ccsd
   maxiter 300
 end

# set tce:print_integrals T
# set tce:qorb 8
# set tce:qela 5
# set tce:qelb 5

 set tce:qducc T
 set tce:nactv 3
 set tce:nonhf T
 set tce:ducc_model 6

 set tce:printtol 0.02

 task tce
================================================================================

 Output coordinates in a.u. (scale by  1.000000000 to convert to a.u.)

  No.       Tag          Charge          X              Y              Z
 ---- ---------------- ---------- -------------- -------------- --------------
    1 O                    8.0000    -0.17255800    -0.14437158     0.00000000
    2 H                    1.0000    -0.17255800     1.94794418     0.00000000
    3 H                    1.0000     1.55302200    -0.79297158     0.00000000

 Vector    1  Occ=1.999991D+00  E=-2.055442D+01  Symmetry=a

 Vector    2  Occ=1.998561D+00  E=-1.306869D+00  Symmetry=a

 Vector    3  Occ=1.983051D+00  E=-6.931742D-01  Symmetry=a

 Vector    4  Occ=1.975662D+00  E=-5.571647D-01  Symmetry=a

 Vector    5  Occ=1.966319D+00  E=-5.075438D-01  Symmetry=a

 Vector    6  Occ=3.486232D-02  E=-3.169718D-02  Symmetry=a

 Vector    7  Occ=2.516171D-02  E=-2.559561D-02  Symmetry=a

 Vector    8  Occ=1.639175D-02  E=-1.390193D-02  Symmetry=a

 Vector    9  Occ=0.000000D+00  E= 4.798462D-01  Symmetry=a

 Vector   10  Occ=0.000000D+00  E= 5.184361D-01  Symmetry=a

 Vector   11  Occ=0.000000D+00  E= 1.034238D+00  Symmetry=a

 Vector   12  Occ=0.000000D+00  E= 1.117408D+00  Symmetry=a

 Vector   13  Occ=0.000000D+00  E= 1.443593D+00  Symmetry=a

 Vector   14  Occ=0.000000D+00  E= 1.505477D+00  Symmetry=a

 Vector   15  Occ=0.000000D+00  E= 1.688563D+00  Symmetry=a

 Vector   16  Occ=0.000000D+00  E= 1.816273D+00  Symmetry=a

 Vector   17  Occ=0.000000D+00  E= 1.856009D+00  Symmetry=a

 Vector   18  Occ=0.000000D+00  E= 2.134878D+00  Symmetry=a

         Total SCF energy =    -76.002842705863

 Vector    2  Occ=2.000000D+00  E=-1.306869D+00

 Vector    3  Occ=2.000000D+00  E=-6.931742D-01

 Vector    4  Occ=2.000000D+00  E=-5.571647D-01

 Vector    5  Occ=2.000000D+00  E=-5.075438D-01

 Vector    6  Occ=0.000000D+00  E=-3.169718D-02

 Vector    7  Occ=0.000000D+00  E=-2.559561D-02

 Vector    8  Occ=0.000000D+00  E=-1.390193D-02

 Vector    9  Occ=0.000000D+00  E= 4.798462D-01

 Vector   10  Occ=0.000000D+00  E= 5.184361D-01

 Vector   11  Occ=0.000000D+00  E= 1.034238D+00

 Vector   12  Occ=0.000000D+00  E= 1.117408D+00

 Vector   13  Occ=0.000000D+00  E= 1.443593D+00

 Vector   14  Occ=0.000000D+00  E= 1.505477D+00

 Vector   15  Occ=0.000000D+00  E= 1.688563D+00

       Multipole analysis of the density wrt the origin
       ------------------------------------------------

     L   x y z        total         open         nuclear
     -   - - -        -----         ----         -------
     0   0 0 0     -0.000000      0.000000     10.000000

     1   1 0 0      0.598495      0.000000     -0.000000
     1   0 1 0      0.449266      0.000000      0.000000
     1   0 0 1     -0.000000      0.000000      0.000000

     2   2 0 0     -4.094178      0.000000      2.679864
     2   1 1 0     -0.776493      0.000000     -1.368336
     2   1 0 1      0.000000      0.000000      0.000000
     2   0 2 0     -3.241074      0.000000      4.590036
     2   0 1 1      0.000000      0.000000      0.000000

 CCSD total energy / hartree       =       -76.222602080462238
 Total times  cpu:        6.3s     wall:        7.8s
