============================== echo of input deck ==============================
 echo
 start H2O
 title "H2O"

 memory total 24 gb

 geometry units bohr
 symmetry c1
        O  0.00000000  0.00000000  0.00000000
        H  0.00000000  2.101533  0.00000000
        H  1.72558000 -0.64860000  0.00000000
 end

 basis spherical
   * library cc-pVDZ
 end

 mcscf
   active  8
   actelec 10
   multiplicity 1
   maxiter 40
   vectors input h2o.mos
   vectors output h2o.mos
 end

 task mcscf

 scf
   vectors input h2o.mos
   vectors output h2o-trash.mos
   noscf
 end

 tce
   2eorb
   2emet 13
   ccsd
   maxiter 300
 end

# set tce:print_integrals T
# set tce:qorb 8
# set tce:qela 5
# set tce:qelb 5

 set tce:qducc T
 set tce:nactv 3
 set tce:nonhf T
 set tce:ducc_model 6

 set tce:printtol 0.02

 task tce
================================================================================

 Output coordinates in a.u. (scale by  1.000000000 to convert to a.u.)

  No.       Tag          Charge          X              Y              Z
 ---- ---------------- ---------- -------------- -------------- --------------
    1 O                    8.0000    -0.17255800    -0.14529330     0.00000000
    2 H                    1.0000    -0.17255800     1.95623970     0.00000000
    3 H                    1.0000     1.55302200    -0.79389330     0.00000000

 Vector    1  Occ=1.999991D+00  E=-2.055476D+01  Symmetry=a

 Vector    2  Occ=1.998550D+00  E=-1.306161D+00  Symmetry=a

 Vector    3  Occ=1.983032D+00  E=-6.921646D-01  Symmetry=a

 Vector    4  Occ=1.975631D+00  E=-5.567364D-01  Symmetry=a

 Vector    5  Occ=1.965855D+00  E=-5.074814D-01  Symmetry=a

 Vector    6  Occ=3.534228D-02  E=-3.194604D-02  Symmetry=a

 Vector    7  Occ=2.519224D-02  E=-2.560392D-02  Symmetry=a

 Vector    8  Occ=1.640607D-02  E=-1.388993D-02  Symmetry=a

 Vector    9  Occ=0.000000D+00  E= 4.802606D-01  Symmetry=a

 Vector   10  Occ=0.000000D+00  E= 5.187494D-01  Symmetry=a

 Vector   11  Occ=0.000000D+00  E= 1.034068D+00  Symmetry=a

 Vector   12  Occ=0.000000D+00  E= 1.119131D+00  Symmetry=a

 Vector   13  Occ=0.000000D+00  E= 1.443396D+00  Symmetry=a

 Vector   14  Occ=0.000000D+00  E= 1.506189D+00  Symmetry=a

 Vector   15  Occ=0.000000D+00  E= 1.688187D+00  Symmetry=a

 Vector   16  Occ=0.000000D+00  E= 1.813935D+00  Symmetry=a

 Vector   17  Occ=0.000000D+00  E= 1.854497D+00  Symmetry=a

 Vector   18  Occ=0.000000D+00  E= 2.129404D+00  Symmetry=a

         Total SCF energy =    -76.001763004655

 Vector    2  Occ=2.000000D+00  E=-1.306161D+00

 Vector    3  Occ=2.000000D+00  E=-6.921646D-01

 Vector    4  Occ=2.000000D+00  E=-5.567364D-01

 Vector    5  Occ=2.000000D+00  E=-5.074814D-01

 Vector    6  Occ=0.000000D+00  E=-3.194604D-02

 Vector    7  Occ=0.000000D+00  E=-2.560392D-02

 Vector    8  Occ=0.000000D+00  E=-1.388993D-02

 Vector    9  Occ=0.000000D+00  E= 4.802606D-01

 Vector   10  Occ=0.000000D+00  E= 5.187494D-01

 Vector   11  Occ=0.000000D+00  E= 1.034068D+00

 Vector   12  Occ=0.000000D+00  E= 1.119131D+00

 Vector   13  Occ=0.000000D+00  E= 1.443396D+00

 Vector   14  Occ=0.000000D+00  E= 1.506189D+00

 Vector   15  Occ=0.000000D+00  E= 1.688187D+00

       Multipole analysis of the density wrt the origin
       ------------------------------------------------

     L   x y z        total         open         nuclear
     -   - - -        -----         ----         -------
     0   0 0 0     -0.000000      0.000000     10.000000

     1   1 0 0      0.598270      0.000000     -0.000000
     1   0 1 0      0.449929      0.000000      0.000000
     1   0 0 1     -0.000000      0.000000      0.000000

     2   2 0 0     -4.097621      0.000000      2.679864
     2   1 1 0     -0.777052      0.000000     -1.369926
     2   1 0 1      0.000000      0.000000      0.000000
     2   0 2 0     -3.234294      0.000000      4.626021
     2   0 1 1      0.000000      0.000000      0.000000

 CCSD total energy / hartree       =       -76.221717502299896
 Total times  cpu:        6.3s     wall:        7.7s
