============================== echo of input deck ==============================
 echo
 start H2O
 title "H2O"

 memory total 24 gb

 geometry units bohr
 symmetry c1
        O  0.00000000  0.00000000  0.00000000
        H  0.00000000  2.11075025  0.00000000
        H  1.72558000 -0.64860000  0.00000000
 end

 basis spherical
   * library cc-pVDZ
 end

 mcscf
   active  8
   actelec 10
   multiplicity 1
   maxiter 40
   vectors input h2o.mos
   vectors output h2o.mos
 end

 task mcscf

 scf
   vectors input h2o.mos
   vectors output h2o-trash.mos
   noscf
 end

 tce
   2eorb
   2emet 13
   ccsd
   maxiter 300
 end

# set tce:print_integrals T
# set tce:qorb 8
# set tce:qela 5
# set tce:qelb 5

 set tce:qducc T
 set tce:nactv 3
 set tce:nonhf T
 set tce:ducc_model 6

 set tce:printtol 0.02

 task tce
================================================================================

 Output coordinates in a.u. (scale by  1.000000000 to convert to a.u.)

  No.       Tag          Charge          X              Y              Z
 ---- ---------------- ---------- -------------- -------------- --------------
    1 O                    8.0000    -0.17255800    -0.14621503     0.00000000
    2 H                    1.0000    -0.17255800     1.96453523     0.00000000
    3 H                    1.0000     1.55302200    -0.79481503     0.00000000

 Vector    1  Occ=1.999991D+00  E=-2.055509D+01  Symmetry=a

 Vector    2  Occ=1.998540D+00  E=-1.305467D+00  Symmetry=a

 Vector    3  Occ=1.983013D+00  E=-6.911662D-01  Symmetry=a

 Vector    4  Occ=1.975601D+00  E=-5.563052D-01  Symmetry=a

 Vector    5  Occ=1.965382D+00  E=-5.074229D-01  Symmetry=a

 Vector    6  Occ=3.583009D-02  E=-3.219716D-02  Symmetry=a

 Vector    7  Occ=2.522264D-02  E=-2.561206D-02  Symmetry=a

 Vector    8  Occ=1.641997D-02  E=-1.387776D-02  Symmetry=a

 Vector    9  Occ=0.000000D+00  E= 4.806663D-01  Symmetry=a

 Vector   10  Occ=0.000000D+00  E= 5.190715D-01  Symmetry=a

 Vector   11  Occ=0.000000D+00  E= 1.033904D+00  Symmetry=a

 Vector   12  Occ=0.000000D+00  E= 1.120879D+00  Symmetry=a

 Vector   13  Occ=0.000000D+00  E= 1.443209D+00  Symmetry=a

 Vector   14  Occ=0.000000D+00  E= 1.506899D+00  Symmetry=a

 Vector   15  Occ=0.000000D+00  E= 1.687805D+00  Symmetry=a

 Vector   16  Occ=0.000000D+00  E= 1.811598D+00  Symmetry=a

 Vector   17  Occ=0.000000D+00  E= 1.852863D+00  Symmetry=a

 Vector   18  Occ=0.000000D+00  E= 2.124140D+00  Symmetry=a

         Total SCF energy =    -76.000667743617

 Vector    2  Occ=2.000000D+00  E=-1.305467D+00

 Vector    3  Occ=2.000000D+00  E=-6.911662D-01

 Vector    4  Occ=2.000000D+00  E=-5.563052D-01

 Vector    5  Occ=2.000000D+00  E=-5.074229D-01

 Vector    6  Occ=0.000000D+00  E=-3.219716D-02

 Vector    7  Occ=0.000000D+00  E=-2.561206D-02

 Vector    8  Occ=0.000000D+00  E=-1.387776D-02

 Vector    9  Occ=0.000000D+00  E= 4.806663D-01

 Vector   10  Occ=0.000000D+00  E= 5.190715D-01

 Vector   11  Occ=0.000000D+00  E= 1.033904D+00

 Vector   12  Occ=0.000000D+00  E= 1.120879D+00

 Vector   13  Occ=0.000000D+00  E= 1.443209D+00

 Vector   14  Occ=0.000000D+00  E= 1.506899D+00

 Vector   15  Occ=0.000000D+00  E= 1.687805D+00

       Multipole analysis of the density wrt the origin
       ------------------------------------------------

     L   x y z        total         open         nuclear
     -   - - -        -----         ----         -------
     0   0 0 0     -0.000000      0.000000     10.000000

     1   1 0 0      0.598049      0.000000     -0.000000
     1   0 1 0      0.450557      0.000000      0.000000
     1   0 0 1     -0.000000      0.000000      0.000000

     2   2 0 0     -4.101051      0.000000      2.679864
     2   1 1 0     -0.777600      0.000000     -1.371517
     2   1 0 1      0.000000      0.000000      0.000000
     2   0 2 0     -3.227540      0.000000      4.662160
     2   0 1 1      0.000000      0.000000      0.000000

 CCSD total energy / hartree       =       -76.220818288836512
 Total times  cpu:        6.3s     wall:        7.7s
