============================== echo of input deck ==============================
 echo
 start H2O
 title "H2O"

 memory total 24 gb

 geometry units bohr
 symmetry c1
        O  0.00000000  0.00000000  0.00000000
        H  0.00000000  2.14761925  0.00000000
        H  1.72558000 -0.64860000  0.00000000
 end

 basis spherical
   * library cc-pVDZ
 end

 mcscf
   active  8
   actelec 10
   multiplicity 1
   maxiter 40
   vectors input h2o.mos
   vectors output h2o.mos
 end

 task mcscf

 scf
   vectors input h2o.mos
   vectors output h2o-trash.mos
   noscf
 end

 tce
   2eorb
   2emet 13
   ccsd
   maxiter 300
 end

# set tce:print_integrals T
# set tce:qorb 8
# set tce:qela 5
# set tce:qelb 5

 set tce:qducc T
 set tce:nactv 3
 set tce:nonhf T
 set tce:ducc_model 6

 set tce:printtol 0.02

 task tce
================================================================================

 Output coordinates in a.u. (scale by  1.000000000 to convert to a.u.)

  No.       Tag          Charge          X              Y              Z
 ---- ---------------- ---------- -------------- -------------- --------------
    1 O                    8.0000    -0.17255800    -0.14990193     0.00000000
    2 H                    1.0000    -0.17255800     1.99771733     0.00000000
    3 H                    1.0000     1.55302200    -0.79850193     0.00000000

 Vector    1  Occ=1.999991D+00  E=-2.055644D+01  Symmetry=a

 Vector    2  Occ=1.998497D+00  E=-1.302832D+00  Symmetry=a

 Vector    3  Occ=1.982942D+00  E=-6.872873D-01  Symmetry=a

 Vector    4  Occ=1.975481D+00  E=-5.545487D-01  Symmetry=a

 Vector    5  Occ=1.963411D+00  E=-5.072275D-01  Symmetry=a

 Vector    6  Occ=3.786326D-02  E=-3.322478D-02  Symmetry=a

 Vector    7  Occ=2.534276D-02  E=-2.564315D-02  Symmetry=a

 Vector    8  Occ=1.647128D-02  E=-1.382744D-02  Symmetry=a

 Vector    9  Occ=0.000000D+00  E= 4.821981D-01  Symmetry=a

 Vector   10  Occ=0.000000D+00  E= 5.204502D-01  Symmetry=a

 Vector   11  Occ=0.000000D+00  E= 1.033313D+00  Symmetry=a

 Vector   12  Occ=0.000000D+00  E= 1.128090D+00  Symmetry=a

 Vector   13  Occ=0.000000D+00  E= 1.442551D+00  Symmetry=a

 Vector   14  Occ=0.000000D+00  E= 1.509711D+00  Symmetry=a

 Vector   15  Occ=0.000000D+00  E= 1.686225D+00  Symmetry=a

 Vector   16  Occ=0.000000D+00  E= 1.802237D+00  Symmetry=a

 Vector   17  Occ=0.000000D+00  E= 1.845063D+00  Symmetry=a

 Vector   18  Occ=0.000000D+00  E= 2.105225D+00  Symmetry=a

         Total SCF energy =    -75.996143226869

 Vector    2  Occ=2.000000D+00  E=-1.302832D+00

 Vector    3  Occ=2.000000D+00  E=-6.872873D-01

 Vector    4  Occ=2.000000D+00  E=-5.545487D-01

 Vector    5  Occ=2.000000D+00  E=-5.072275D-01

 Vector    6  Occ=0.000000D+00  E=-3.322478D-02

 Vector    7  Occ=0.000000D+00  E=-2.564315D-02

 Vector    8  Occ=0.000000D+00  E=-1.382744D-02

 Vector    9  Occ=0.000000D+00  E= 4.821981D-01

 Vector   10  Occ=0.000000D+00  E= 5.204502D-01

 Vector   11  Occ=0.000000D+00  E= 1.033313D+00

 Vector   12  Occ=0.000000D+00  E= 1.128090D+00

 Vector   13  Occ=0.000000D+00  E= 1.442551D+00

 Vector   14  Occ=0.000000D+00  E= 1.509711D+00

 Vector   15  Occ=0.000000D+00  E= 1.686225D+00

       Multipole analysis of the density wrt the origin
       ------------------------------------------------

     L   x y z        total         open         nuclear
     -   - - -        -----         ----         -------
     0   0 0 0     -0.000000      0.000000     10.000000

     1   1 0 0      0.597211      0.000000     -0.000000
     1   0 1 0      0.452711      0.000000     -0.000000
     1   0 0 1     -0.000000      0.000000      0.000000

     2   2 0 0     -4.114638      0.000000      2.679864
     2   1 1 0     -0.779671      0.000000     -1.377879
     2   1 0 1      0.000000      0.000000      0.000000
     2   0 2 0     -3.200821      0.000000      4.808245
     2   0 1 1      0.000000      0.000000      0.000000

 CCSD total energy / hartree       =       -76.217087622506256
 Total times  cpu:        6.3s     wall:        7.7s
