============================== echo of input deck ==============================
 echo
 start H2O
 title "H2O"

 memory total 24 gb

 geometry units bohr
 symmetry c1
        O  0.00000000  0.00000000  0.00000000
        H  0.00000000  2.175271  0.00000000
        H  1.72558000 -0.64860000  0.00000000
 end

 basis spherical
   * library cc-pVDZ
 end

 mcscf
   active  8
   actelec 10
   multiplicity 1
   maxiter 40
   vectors input h2o.mos
   vectors output h2o.mos
 end

 task mcscf

 scf
   vectors input h2o.mos
   vectors output h2o-trash.mos
   noscf
 end

 tce
   2eorb
   2emet 13
   ccsd
   maxiter 300
 end

# set tce:print_integrals T
# set tce:qorb 8
# set tce:qela 5
# set tce:qelb 5

 set tce:qducc T
 set tce:nactv 3
 set tce:nonhf T
 set tce:ducc_model 6

 set tce:printtol 0.02

 task tce
================================================================================

 Output coordinates in a.u. (scale by  1.000000000 to convert to a.u.)

  No.       Tag          Charge          X              Y              Z
 ---- ---------------- ---------- -------------- -------------- --------------
    1 O                    8.0000    -0.17255800    -0.15266710     0.00000000
    2 H                    1.0000    -0.17255800     2.02260390     0.00000000
    3 H                    1.0000     1.55302200    -0.80126710     0.00000000

 Vector    1  Occ=1.999991D+00  E=-2.055745D+01  Symmetry=a

 Vector    2  Occ=1.998465D+00  E=-1.300998D+00  Symmetry=a

 Vector    3  Occ=1.982894D+00  E=-6.845006D-01  Symmetry=a

 Vector    4  Occ=1.975392D+00  E=-5.531962D-01  Symmetry=a

 Vector    5  Occ=1.961842D+00  E=-5.071218D-01  Symmetry=a

 Vector    6  Occ=3.947918D-02  E=-3.402082D-02  Symmetry=a

 Vector    7  Occ=2.543121D-02  E=-2.566514D-02  Symmetry=a

 Vector    8  Occ=1.650515D-02  E=-1.378807D-02  Symmetry=a

 Vector    9  Occ=0.000000D+00  E= 4.832473D-01  Symmetry=a

 Vector   10  Occ=0.000000D+00  E= 5.215823D-01  Symmetry=a

 Vector   11  Occ=0.000000D+00  E= 1.032946D+00  Symmetry=a

 Vector   12  Occ=0.000000D+00  E= 1.133704D+00  Symmetry=a

 Vector   13  Occ=0.000000D+00  E= 1.442151D+00  Symmetry=a

 Vector   14  Occ=0.000000D+00  E= 1.511788D+00  Symmetry=a

 Vector   15  Occ=0.000000D+00  E= 1.684982D+00  Symmetry=a

 Vector   16  Occ=0.000000D+00  E= 1.795178D+00  Symmetry=a

 Vector   17  Occ=0.000000D+00  E= 1.837841D+00  Symmetry=a

 Vector   18  Occ=0.000000D+00  E= 2.093329D+00  Symmetry=a

         Total SCF energy =    -75.992615051483

 Vector    2  Occ=2.000000D+00  E=-1.300998D+00

 Vector    3  Occ=2.000000D+00  E=-6.845006D-01

 Vector    4  Occ=2.000000D+00  E=-5.531962D-01

 Vector    5  Occ=2.000000D+00  E=-5.071218D-01

 Vector    6  Occ=0.000000D+00  E=-3.402082D-02

 Vector    7  Occ=0.000000D+00  E=-2.566514D-02

 Vector    8  Occ=0.000000D+00  E=-1.378807D-02

 Vector    9  Occ=0.000000D+00  E= 4.832473D-01

 Vector   10  Occ=0.000000D+00  E= 5.215823D-01

 Vector   11  Occ=0.000000D+00  E= 1.032946D+00

 Vector   12  Occ=0.000000D+00  E= 1.133704D+00

 Vector   13  Occ=0.000000D+00  E= 1.442151D+00

 Vector   14  Occ=0.000000D+00  E= 1.511788D+00

 Vector   15  Occ=0.000000D+00  E= 1.684982D+00

       Multipole analysis of the density wrt the origin
       ------------------------------------------------

     L   x y z        total         open         nuclear
     -   - - -        -----         ----         -------
     0   0 0 0     -0.000000      0.000000     10.000000

     1   1 0 0      0.596628      0.000000     -0.000000
     1   0 1 0      0.453940      0.000000      0.000000
     1   0 0 1     -0.000000      0.000000      0.000000

     2   2 0 0     -4.124686      0.000000      2.679864
     2   1 1 0     -0.781094      0.000000     -1.382650
     2   1 0 1      0.000000      0.000000      0.000000
     2   0 2 0     -3.181145      0.000000      4.919413
     2   0 1 1      0.000000      0.000000      0.000000

 CCSD total energy / hartree       =       -76.214165580827867
 Total times  cpu:        6.2s     wall:        7.7s
