============================== echo of input deck ==============================
 echo
 start H2O
 title "H2O"

 memory total 24 gb

 geometry units bohr
 symmetry c1
        O  0.00000000  0.00000000  0.00000000
        H  0.00000000  2.20292275  0.00000000
        H  1.72558000 -0.64860000  0.00000000
 end

 basis spherical
   * library cc-pVDZ
 end

 mcscf
   active  8
   actelec 10
   multiplicity 1
   maxiter 40
   vectors input h2o.mos
   vectors output h2o.mos
 end

 task mcscf

 scf
   vectors input h2o.mos
   vectors output h2o-trash.mos
   noscf
 end

 tce
   2eorb
   2emet 13
   ccsd
   maxiter 300
 end

# set tce:print_integrals T
# set tce:qorb 8
# set tce:qela 5
# set tce:qelb 5

 set tce:qducc T
 set tce:nactv 3
 set tce:nonhf T
 set tce:ducc_model 6

 set tce:printtol 0.02

 task tce
================================================================================

 Output coordinates in a.u. (scale by  1.000000000 to convert to a.u.)

  No.       Tag          Charge          X              Y              Z
 ---- ---------------- ---------- -------------- -------------- --------------
    1 O                    8.0000    -0.17255800    -0.15543228     0.00000000
    2 H                    1.0000    -0.17255800     2.04749048     0.00000000
    3 H                    1.0000     1.55302200    -0.80403228     0.00000000

 Vector    1  Occ=1.999991D+00  E=-2.055846D+01  Symmetry=a

 Vector    2  Occ=1.998433D+00  E=-1.299283D+00  Symmetry=a

 Vector    3  Occ=1.982849D+00  E=-6.818216D-01  Symmetry=a

 Vector    4  Occ=1.975306D+00  E=-5.518116D-01  Symmetry=a

 Vector    5  Occ=1.960188D+00  E=-5.070514D-01  Symmetry=a

 Vector    6  Occ=4.117885D-02  E=-3.483980D-02  Symmetry=a

 Vector    7  Occ=2.551813D-02  E=-2.568614D-02  Symmetry=a

 Vector    8  Occ=1.653498D-02  E=-1.374736D-02  Symmetry=a

 Vector    9  Occ=0.000000D+00  E= 4.842073D-01  Symmetry=a

 Vector   10  Occ=0.000000D+00  E= 5.228010D-01  Symmetry=a

 Vector   11  Occ=0.000000D+00  E= 1.032651D+00  Symmetry=a

 Vector   12  Occ=0.000000D+00  E= 1.139466D+00  Symmetry=a

 Vector   13  Occ=0.000000D+00  E= 1.441828D+00  Symmetry=a

 Vector   14  Occ=0.000000D+00  E= 1.513831D+00  Symmetry=a

 Vector   15  Occ=0.000000D+00  E= 1.683687D+00  Symmetry=a

 Vector   16  Occ=0.000000D+00  E= 1.788043D+00  Symmetry=a

 Vector   17  Occ=0.000000D+00  E= 1.829465D+00  Symmetry=a

 Vector   18  Occ=0.000000D+00  E= 2.083385D+00  Symmetry=a

         Total SCF energy =    -75.988986971776

 Vector    2  Occ=2.000000D+00  E=-1.299283D+00

 Vector    3  Occ=2.000000D+00  E=-6.818216D-01

 Vector    4  Occ=2.000000D+00  E=-5.518116D-01

 Vector    5  Occ=2.000000D+00  E=-5.070514D-01

 Vector    6  Occ=0.000000D+00  E=-3.483980D-02

 Vector    7  Occ=0.000000D+00  E=-2.568614D-02

 Vector    8  Occ=0.000000D+00  E=-1.374736D-02

 Vector    9  Occ=0.000000D+00  E= 4.842073D-01

 Vector   10  Occ=0.000000D+00  E= 5.228010D-01

 Vector   11  Occ=0.000000D+00  E= 1.032651D+00

 Vector   12  Occ=0.000000D+00  E= 1.139466D+00

 Vector   13  Occ=0.000000D+00  E= 1.441828D+00

 Vector   14  Occ=0.000000D+00  E= 1.513831D+00

 Vector   15  Occ=0.000000D+00  E= 1.683687D+00

       Multipole analysis of the density wrt the origin
       ------------------------------------------------

     L   x y z        total         open         nuclear
     -   - - -        -----         ----         -------
     0   0 0 0     -0.000000      0.000000     10.000000

     1   1 0 0      0.596084      0.000000     -0.000000
     1   0 1 0      0.454825      0.000000      0.000000
     1   0 0 1     -0.000000      0.000000      0.000000

     2   2 0 0     -4.134607      0.000000      2.679864
     2   1 1 0     -0.782401      0.000000     -1.387422
     2   1 0 1      0.000000      0.000000      0.000000
     2   0 2 0     -3.161836      0.000000      5.031959
     2   0 1 1     -0.000000      0.000000      0.000000

 CCSD total energy / hartree       =       -76.211153519083368
 Total times  cpu:        6.2s     wall:        7.7s
