============================== echo of input deck ==============================
 echo
 start H2O
 title "H2O"

 memory total 24 gb

 geometry units bohr
 symmetry c1
        O  0.00000000  0.00000000  0.00000000
        H  0.00000000  2.1937055  0.00000000
        H  1.72558000 -0.64860000  0.00000000
 end

 basis spherical
   * library cc-pVDZ
 end

 mcscf
   active  8
   actelec 10
   multiplicity 1
   maxiter 40
   vectors input h2o.mos
   vectors output h2o.mos
 end

 task mcscf

 scf
   vectors input h2o.mos
   vectors output h2o-trash.mos
   noscf
 end

 tce
   2eorb
   2emet 13
   ccsd
   maxiter 300
 end

# set tce:print_integrals T
# set tce:qorb 8
# set tce:qela 5
# set tce:qelb 5

 set tce:qducc T
 set tce:nactv 3
 set tce:nonhf T
 set tce:ducc_model 6

 set tce:printtol 0.02

 task tce
================================================================================

 Output coordinates in a.u. (scale by  1.000000000 to convert to a.u.)

  No.       Tag          Charge          X              Y              Z
 ---- ---------------- ---------- -------------- -------------- --------------
    1 O                    8.0000    -0.17255800    -0.15451055     0.00000000
    2 H                    1.0000    -0.17255800     2.03919495     0.00000000
    3 H                    1.0000     1.55302200    -0.80311055     0.00000000

 Vector    1  Occ=1.999991D+00  E=-2.055812D+01  Symmetry=a

 Vector    2  Occ=1.998444D+00  E=-1.299842D+00  Symmetry=a

 Vector    3  Occ=1.982864D+00  E=-6.827025D-01  Symmetry=a

 Vector    4  Occ=1.975335D+00  E=-5.522768D-01  Symmetry=a

 Vector    5  Occ=1.960749D+00  E=-5.070710D-01  Symmetry=a

 Vector    6  Occ=4.060266D-02  E=-3.456418D-02  Symmetry=a

 Vector    7  Occ=2.548933D-02  E=-2.567924D-02  Symmetry=a

 Vector    8  Occ=1.652549D-02  E=-1.376107D-02  Symmetry=a

 Vector    9  Occ=0.000000D+00  E= 4.838974D-01  Symmetry=a

 Vector   10  Occ=0.000000D+00  E= 5.223850D-01  Symmetry=a

 Vector   11  Occ=0.000000D+00  E= 1.032741D+00  Symmetry=a

 Vector   12  Occ=0.000000D+00  E= 1.137531D+00  Symmetry=a

 Vector   13  Occ=0.000000D+00  E= 1.441927D+00  Symmetry=a

 Vector   14  Occ=0.000000D+00  E= 1.513154D+00  Symmetry=a

 Vector   15  Occ=0.000000D+00  E= 1.684125D+00  Symmetry=a

 Vector   16  Occ=0.000000D+00  E= 1.790433D+00  Symmetry=a

 Vector   17  Occ=0.000000D+00  E= 1.832380D+00  Symmetry=a

 Vector   18  Occ=0.000000D+00  E= 2.086486D+00  Symmetry=a

         Total SCF energy =    -75.990206622286

 Vector    2  Occ=2.000000D+00  E=-1.299842D+00

 Vector    3  Occ=2.000000D+00  E=-6.827025D-01

 Vector    4  Occ=2.000000D+00  E=-5.522768D-01

 Vector    5  Occ=2.000000D+00  E=-5.070710D-01

 Vector    6  Occ=0.000000D+00  E=-3.456418D-02

 Vector    7  Occ=0.000000D+00  E=-2.567924D-02

 Vector    8  Occ=0.000000D+00  E=-1.376107D-02

 Vector    9  Occ=0.000000D+00  E= 4.838974D-01

 Vector   10  Occ=0.000000D+00  E= 5.223850D-01

 Vector   11  Occ=0.000000D+00  E= 1.032741D+00

 Vector   12  Occ=0.000000D+00  E= 1.137531D+00

 Vector   13  Occ=0.000000D+00  E= 1.441927D+00

 Vector   14  Occ=0.000000D+00  E= 1.513154D+00

 Vector   15  Occ=0.000000D+00  E= 1.684125D+00

       Multipole analysis of the density wrt the origin
       ------------------------------------------------

     L   x y z        total         open         nuclear
     -   - - -        -----         ----         -------
     0   0 0 0     -0.000000      0.000000     10.000000

     1   1 0 0      0.596261      0.000000     -0.000000
     1   0 1 0      0.454569      0.000000     -0.000000
     1   0 0 1     -0.000000      0.000000      0.000000

     2   2 0 0     -4.131314      0.000000      2.679864
     2   1 1 0     -0.781978      0.000000     -1.385832
     2   1 0 1      0.000000      0.000000      0.000000
     2   0 2 0     -3.168228      0.000000      4.994291
     2   0 1 1      0.000000      0.000000      0.000000

 CCSD total energy / hartree       =       -76.212166693385257
 Total times  cpu:        6.4s     wall:        7.9s
