============================== echo of input deck ==============================
 echo
 start H2O
 title "H2O"

 memory total 24 gb

 geometry units bohr
 symmetry c1
        O  0.00000000  0.00000000  0.00000000
        H  0.00000000  2.2305745  0.00000000
        H  1.72558000 -0.64860000  0.00000000
 end

 basis spherical
   * library cc-pVDZ
 end

 mcscf
   active  8
   actelec 10
   multiplicity 1
   maxiter 40
   vectors input h2o.mos
   vectors output h2o.mos
 end

 task mcscf

 scf
   vectors input h2o.mos
   vectors output h2o-trash.mos
   noscf
 end

 tce
   2eorb
   2emet 13
   ccsd
   maxiter 300
 end

# set tce:print_integrals T
# set tce:qorb 8
# set tce:qela 5
# set tce:qelb 5

 set tce:qducc T
 set tce:nactv 3
 set tce:nonhf T
 set tce:ducc_model 6

 set tce:printtol 0.02

 task tce
================================================================================

 Output coordinates in a.u. (scale by  1.000000000 to convert to a.u.)

  No.       Tag          Charge          X              Y              Z
 ---- ---------------- ---------- -------------- -------------- --------------
    1 O                    8.0000    -0.17255800    -0.15819745     0.00000000
    2 H                    1.0000    -0.17255800     2.07237705     0.00000000
    3 H                    1.0000     1.55302200    -0.80679745     0.00000000

 Vector    1  Occ=1.999991D+00  E=-2.055945D+01  Symmetry=a

 Vector    2  Occ=1.998401D+00  E=-1.297651D+00  Symmetry=a

 Vector    3  Occ=1.982809D+00  E=-6.792296D-01  Symmetry=a

 Vector    4  Occ=1.975221D+00  E=-5.503814D-01  Symmetry=a

 Vector    5  Occ=1.958443D+00  E=-5.069819D-01  Symmetry=a

 Vector    6  Occ=4.297020D-02  E=-3.566037D-02  Symmetry=a

 Vector    7  Occ=2.560359D-02  E=-2.570513D-02  Symmetry=a

 Vector    8  Occ=1.656061D-02  E=-1.370754D-02  Symmetry=a

 Vector    9  Occ=0.000000D+00  E= 4.849937D-01  Symmetry=a

 Vector   10  Occ=0.000000D+00  E= 5.239923D-01  Symmetry=a

 Vector   11  Occ=0.000000D+00  E= 1.032361D+00  Symmetry=a

 Vector   12  Occ=0.000000D+00  E= 1.145021D+00  Symmetry=a

 Vector   13  Occ=0.000000D+00  E= 1.441597D+00  Symmetry=a

 Vector   14  Occ=0.000000D+00  E= 1.515835D+00  Symmetry=a

 Vector   15  Occ=0.000000D+00  E= 1.682345D+00  Symmetry=a

 Vector   16  Occ=0.000000D+00  E= 1.780765D+00  Symmetry=a

 Vector   17  Occ=0.000000D+00  E= 1.819870D+00  Symmetry=a

 Vector   18  Occ=0.000000D+00  E= 2.075305D+00  Symmetry=a

         Total SCF energy =    -75.985271122546

 Vector    2  Occ=2.000000D+00  E=-1.297651D+00

 Vector    3  Occ=2.000000D+00  E=-6.792296D-01

 Vector    4  Occ=2.000000D+00  E=-5.503814D-01

 Vector    5  Occ=2.000000D+00  E=-5.069819D-01

 Vector    6  Occ=0.000000D+00  E=-3.566037D-02

 Vector    7  Occ=0.000000D+00  E=-2.570513D-02

 Vector    8  Occ=0.000000D+00  E=-1.370754D-02

 Vector    9  Occ=0.000000D+00  E= 4.849937D-01

 Vector   10  Occ=0.000000D+00  E= 5.239923D-01

 Vector   11  Occ=0.000000D+00  E= 1.032361D+00

 Vector   12  Occ=0.000000D+00  E= 1.145021D+00

 Vector   13  Occ=0.000000D+00  E= 1.441597D+00

 Vector   14  Occ=0.000000D+00  E= 1.515835D+00

 Vector   15  Occ=0.000000D+00  E= 1.682345D+00

       Multipole analysis of the density wrt the origin
       ------------------------------------------------

     L   x y z        total         open         nuclear
     -   - - -        -----         ----         -------
     0   0 0 0     -0.000000      0.000000     10.000000

     1   1 0 0      0.595574      0.000000     -0.000000
     1   0 1 0      0.455375      0.000000     -0.000000
     1   0 0 1     -0.000000      0.000000      0.000000

     2   2 0 0     -4.144404      0.000000      2.679864
     2   1 1 0     -0.783561      0.000000     -1.392194
     2   1 0 1     -0.000000      0.000000      0.000000
     2   0 2 0     -3.142916      0.000000      5.145880
     2   0 1 1      0.000000      0.000000      0.000000

 CCSD total energy / hartree       =       -76.208064785211519
 Total times  cpu:        6.6s     wall:        8.4s
