============================== echo of input deck ==============================
 echo
 start H2O
 title "H2O"

 memory total 24 gb

 geometry units bohr
 symmetry c1
        O  0.00000000  0.00000000  0.00000000
        H  0.00000000  2.285878  0.00000000
        H  1.72558000 -0.64860000  0.00000000
 end

 basis spherical
   * library cc-pVDZ
 end

 mcscf
   active  8
   actelec 10
   multiplicity 1
   maxiter 40
   vectors input h2o.mos
   vectors output h2o.mos
 end

 task mcscf

 scf
   vectors input h2o.mos
   vectors output h2o-trash.mos
   noscf
 end

 tce
   2eorb
   2emet 13
   ccsd
   maxiter 300
 end

# set tce:print_integrals T
# set tce:qorb 8
# set tce:qela 5
# set tce:qelb 5

 set tce:qducc T
 set tce:nactv 3
 set tce:nonhf T
 set tce:ducc_model 6

 set tce:printtol 0.02

 task tce
================================================================================

 Output coordinates in a.u. (scale by  1.000000000 to convert to a.u.)

  No.       Tag          Charge          X              Y              Z
 ---- ---------------- ---------- -------------- -------------- --------------
    1 O                    8.0000    -0.17255800    -0.16372780     0.00000000
    2 H                    1.0000    -0.17255800     2.12215020     0.00000000
    3 H                    1.0000     1.55302200    -0.81232780     0.00000000

 Vector    1  Occ=1.999991D+00  E=-2.056150D+01  Symmetry=a

 Vector    2  Occ=1.998336D+00  E=-1.294777D+00  Symmetry=a

 Vector    3  Occ=1.982742D+00  E=-6.744238D-01  Symmetry=a

 Vector    4  Occ=1.975057D+00  E=-5.474358D-01  Symmetry=a

 Vector    5  Occ=1.954666D+00  E=-5.070164D-01  Symmetry=a

 Vector    6  Occ=4.683950D-02  E=-3.742224D-02  Symmetry=a

 Vector    7  Occ=2.576877D-02  E=-2.574298D-02  Symmetry=a

 Vector    8  Occ=1.659932D-02  E=-1.362031D-02  Symmetry=a

 Vector    9  Occ=0.000000D+00  E= 4.864755D-01  Symmetry=a

 Vector   10  Occ=0.000000D+00  E= 5.268650D-01  Symmetry=a

 Vector   11  Occ=0.000000D+00  E= 1.032146D+00  Symmetry=a

 Vector   12  Occ=0.000000D+00  E= 1.157053D+00  Symmetry=a

 Vector   13  Occ=0.000000D+00  E= 1.441310D+00  Symmetry=a

 Vector   14  Occ=0.000000D+00  E= 1.519718D+00  Symmetry=a

 Vector   15  Occ=0.000000D+00  E= 1.679481D+00  Symmetry=a

 Vector   16  Occ=0.000000D+00  E= 1.765337D+00  Symmetry=a

 Vector   17  Occ=0.000000D+00  E= 1.798816D+00  Symmetry=a

 Vector   18  Occ=0.000000D+00  E= 2.064303D+00  Symmetry=a

         Total SCF energy =    -75.977624481556

 Vector    2  Occ=2.000000D+00  E=-1.294777D+00

 Vector    3  Occ=2.000000D+00  E=-6.744238D-01

 Vector    4  Occ=2.000000D+00  E=-5.474358D-01

 Vector    5  Occ=2.000000D+00  E=-5.070164D-01

 Vector    6  Occ=0.000000D+00  E=-3.742224D-02

 Vector    7  Occ=0.000000D+00  E=-2.574298D-02

 Vector    8  Occ=0.000000D+00  E=-1.362031D-02

 Vector    9  Occ=0.000000D+00  E= 4.864755D-01

 Vector   10  Occ=0.000000D+00  E= 5.268650D-01

 Vector   11  Occ=0.000000D+00  E= 1.032146D+00

 Vector   12  Occ=0.000000D+00  E= 1.157053D+00

 Vector   13  Occ=0.000000D+00  E= 1.441310D+00

 Vector   14  Occ=0.000000D+00  E= 1.519718D+00

 Vector   15  Occ=0.000000D+00  E= 1.679481D+00

       Multipole analysis of the density wrt the origin
       ------------------------------------------------

     L   x y z        total         open         nuclear
     -   - - -        -----         ----         -------
     0   0 0 0     -0.000000      0.000000     10.000000

     1   1 0 0      0.594669      0.000000     -0.000000
     1   0 1 0      0.455335      0.000000     -0.000000
     1   0 0 1     -0.000000      0.000000      0.000000

     2   2 0 0     -4.163573      0.000000      2.679864
     2   1 1 0     -0.785570      0.000000     -1.401737
     2   1 0 1      0.000000      0.000000      0.000000
     2   0 2 0     -3.106587      0.000000      5.377852
     2   0 1 1     -0.000000      0.000000      0.000000

 CCSD total energy / hartree       =       -76.201705454749643
 Total times  cpu:        6.8s     wall:        8.5s
