============================== echo of input deck ==============================
 echo
 start H2O
 title "H2O"

 memory total 24 gb

 geometry units bohr
 symmetry c1
        O  0.00000000  0.00000000  0.00000000
        H  0.00000000  2.3780505  0.00000000
        H  1.72558000 -0.64860000  0.00000000
 end

 basis spherical
   * library cc-pVDZ
 end

 mcscf
   active  8
   actelec 10
   multiplicity 1
   maxiter 40
   vectors input h2o.mos
   vectors output h2o.mos
 end

 task mcscf

 scf
   vectors input h2o.mos
   vectors output h2o-trash.mos
   noscf
 end

 tce
   2eorb
   2emet 13
   ccsd
   maxiter 300
 end

# set tce:print_integrals T
# set tce:qorb 8
# set tce:qela 5
# set tce:qelb 5

 set tce:qducc T
 set tce:nactv 3
 set tce:nonhf T
 set tce:ducc_model 6

 set tce:printtol 0.02

 task tce
================================================================================

 Output coordinates in a.u. (scale by  1.000000000 to convert to a.u.)

  No.       Tag          Charge          X              Y              Z
 ---- ---------------- ---------- -------------- -------------- --------------
    1 O                    8.0000    -0.17255800    -0.17294505     0.00000000
    2 H                    1.0000    -0.17255800     2.20510545     0.00000000
    3 H                    1.0000     1.55302200    -0.82154505     0.00000000

 Vector    1  Occ=1.999991D+00  E=-2.056498D+01  Symmetry=a

 Vector    2  Occ=1.998231D+00  E=-1.290904D+00  Symmetry=a

 Vector    3  Occ=1.982671D+00  E=-6.674321D-01  Symmetry=a

 Vector    4  Occ=1.974802D+00  E=-5.421694D-01  Symmetry=a

 Vector    5  Occ=1.947379D+00  E=-5.073919D-01  Symmetry=a

 Vector    6  Occ=5.427407D-02  E=-4.061743D-02  Symmetry=a

 Vector    7  Occ=2.602589D-02  E=-2.579920D-02  Symmetry=a

 Vector    8  Occ=1.662524D-02  E=-1.346649D-02  Symmetry=a

 Vector    9  Occ=0.000000D+00  E= 4.881178D-01  Symmetry=a

 Vector   10  Occ=0.000000D+00  E= 5.324261D-01  Symmetry=a

 Vector   11  Occ=0.000000D+00  E= 1.032503D+00  Symmetry=a

 Vector   12  Occ=0.000000D+00  E= 1.177444D+00  Symmetry=a

 Vector   13  Occ=0.000000D+00  E= 1.441391D+00  Symmetry=a

 Vector   14  Occ=0.000000D+00  E= 1.525727D+00  Symmetry=a

 Vector   15  Occ=0.000000D+00  E= 1.674198D+00  Symmetry=a

 Vector   16  Occ=0.000000D+00  E= 1.732724D+00  Symmetry=a

 Vector   17  Occ=0.000000D+00  E= 1.764477D+00  Symmetry=a

 Vector   18  Occ=0.000000D+00  E= 2.057747D+00  Symmetry=a

         Total SCF energy =    -75.964419947958

 Vector    2  Occ=2.000000D+00  E=-1.290904D+00

 Vector    3  Occ=2.000000D+00  E=-6.674321D-01

 Vector    4  Occ=2.000000D+00  E=-5.421694D-01

 Vector    5  Occ=2.000000D+00  E=-5.073919D-01

 Vector    6  Occ=0.000000D+00  E=-4.061743D-02

 Vector    7  Occ=0.000000D+00  E=-2.579920D-02

 Vector    8  Occ=0.000000D+00  E=-1.346649D-02

 Vector    9  Occ=0.000000D+00  E= 4.881178D-01

 Vector   10  Occ=0.000000D+00  E= 5.324261D-01

 Vector   11  Occ=0.000000D+00  E= 1.032503D+00

 Vector   12  Occ=0.000000D+00  E= 1.177444D+00

 Vector   13  Occ=0.000000D+00  E= 1.441391D+00

 Vector   14  Occ=0.000000D+00  E= 1.525727D+00

 Vector   15  Occ=0.000000D+00  E= 1.674198D+00

       Multipole analysis of the density wrt the origin
       ------------------------------------------------

     L   x y z        total         open         nuclear
     -   - - -        -----         ----         -------
     0   0 0 0     -0.000000      0.000000     10.000000

     1   1 0 0      0.593487      0.000000     -0.000000
     1   0 1 0      0.451824      0.000000      0.000000
     1   0 0 1     -0.000000      0.000000      0.000000

     2   2 0 0     -4.194235      0.000000      2.679864
     2   1 1 0     -0.787737      0.000000     -1.417642
     2   1 0 1      0.000000      0.000000      0.000000
     2   0 2 0     -3.051326      0.000000      5.776706
     2   0 1 1     -0.000000      0.000000      0.000000

 CCSD total energy / hartree       =       -76.190760970333017
 Total times  cpu:        6.7s     wall:        8.7s
