============================== echo of input deck ==============================
 echo
 start H2O
 title "H2O"

 memory total 24 gb

 geometry units bohr
 symmetry c1
        O  0.00000000  0.00000000  0.00000000
        H  0.00000000  2.4149195  0.00000000
        H  1.72558000 -0.64860000  0.00000000
 end

 basis spherical
   * library cc-pVDZ
 end

 mcscf
   active  8
   actelec 10
   multiplicity 1
   maxiter 40
   vectors input h2o.mos
   vectors output h2o.mos
 end

 task mcscf

 scf
   vectors input h2o.mos
   vectors output h2o-trash.mos
   noscf
 end

 tce
   2eorb
   2emet 13
   ccsd
   maxiter 300
 end

# set tce:print_integrals T
# set tce:qorb 8
# set tce:qela 5
# set tce:qelb 5

 set tce:qducc T
 set tce:nactv 3
 set tce:nonhf T
 set tce:ducc_model 6

 set tce:printtol 0.02

 task tce
================================================================================

 Output coordinates in a.u. (scale by  1.000000000 to convert to a.u.)

  No.       Tag          Charge          X              Y              Z
 ---- ---------------- ---------- -------------- -------------- --------------
    1 O                    8.0000    -0.17255800    -0.17663195     0.00000000
    2 H                    1.0000    -0.17255800     2.23828755     0.00000000
    3 H                    1.0000     1.55302200    -0.82523195     0.00000000

 Vector    1  Occ=1.999991D+00  E=-2.056641D+01  Symmetry=a

 Vector    2  Occ=1.998191D+00  E=-1.289655D+00  Symmetry=a

 Vector    3  Occ=1.982657D+00  E=-6.649968D-01  Symmetry=a

 Vector    4  Occ=1.974708D+00  E=-5.399280D-01  Symmetry=a

 Vector    5  Occ=1.944067D+00  E=-5.076538D-01  Symmetry=a

 Vector    6  Occ=5.764147D-02  E=-4.199743D-02  Symmetry=a

 Vector    7  Occ=2.612156D-02  E=-2.581941D-02  Symmetry=a

 Vector    8  Occ=1.662188D-02  E=-1.340262D-02  Symmetry=a

 Vector    9  Occ=0.000000D+00  E= 4.884944D-01  Symmetry=a

 Vector   10  Occ=0.000000D+00  E= 5.349060D-01  Symmetry=a

 Vector   11  Occ=0.000000D+00  E= 1.032895D+00  Symmetry=a

 Vector   12  Occ=0.000000D+00  E= 1.185548D+00  Symmetry=a

 Vector   13  Occ=0.000000D+00  E= 1.441599D+00  Symmetry=a

 Vector   14  Occ=0.000000D+00  E= 1.527944D+00  Symmetry=a

 Vector   15  Occ=0.000000D+00  E= 1.671906D+00  Symmetry=a

 Vector   16  Occ=0.000000D+00  E= 1.716105D+00  Symmetry=a

 Vector   17  Occ=0.000000D+00  E= 1.753288D+00  Symmetry=a

 Vector   18  Occ=0.000000D+00  E= 2.058025D+00  Symmetry=a

         Total SCF energy =    -75.959032686928

 Vector    2  Occ=2.000000D+00  E=-1.289655D+00

 Vector    3  Occ=2.000000D+00  E=-6.649968D-01

 Vector    4  Occ=2.000000D+00  E=-5.399280D-01

 Vector    5  Occ=2.000000D+00  E=-5.076538D-01

 Vector    6  Occ=0.000000D+00  E=-4.199743D-02

 Vector    7  Occ=0.000000D+00  E=-2.581941D-02

 Vector    8  Occ=0.000000D+00  E=-1.340262D-02

 Vector    9  Occ=0.000000D+00  E= 4.884944D-01

 Vector   10  Occ=0.000000D+00  E= 5.349060D-01

 Vector   11  Occ=0.000000D+00  E= 1.032895D+00

 Vector   12  Occ=0.000000D+00  E= 1.185548D+00

 Vector   13  Occ=0.000000D+00  E= 1.441599D+00

 Vector   14  Occ=0.000000D+00  E= 1.527944D+00

 Vector   15  Occ=0.000000D+00  E= 1.671906D+00

       Multipole analysis of the density wrt the origin
       ------------------------------------------------

     L   x y z        total         open         nuclear
     -   - - -        -----         ----         -------
     0   0 0 0     -0.000000      0.000000     10.000000

     1   1 0 0      0.593127      0.000000     -0.000000
     1   0 1 0      0.449164      0.000000      0.000000
     1   0 0 1     -0.000000      0.000000      0.000000

     2   2 0 0     -4.206020      0.000000      2.679864
     2   1 1 0     -0.788168      0.000000     -1.424004
     2   1 0 1      0.000000      0.000000      0.000000
     2   0 2 0     -3.031411      0.000000      5.940530
     2   0 1 1     -0.000000      0.000000      0.000000

 CCSD total energy / hartree       =       -76.186322769461981
 Total times  cpu:        7.1s     wall:        9.2s
