============================== echo of input deck ==============================
 echo
 start H2O
 title "H2O"

 memory total 24 gb

 geometry units bohr
 symmetry c1
        O  0.00000000  0.00000000  0.00000000
        H  0.00000000  2.5255265  0.00000000
        H  1.72558000 -0.64860000  0.00000000
 end

 basis spherical
   * library cc-pVDZ
 end

 mcscf
   active  8
   actelec 10
   multiplicity 1
   maxiter 40
   vectors input h2o.mos
   vectors output h2o.mos
 end

 task mcscf

 scf
   vectors input h2o.mos
   vectors output h2o-trash.mos
   noscf
 end

 tce
   2eorb
   2emet 13
   ccsd
   maxiter 300
 end

# set tce:print_integrals T
# set tce:qorb 8
# set tce:qela 5
# set tce:qelb 5

 set tce:qducc T
 set tce:nactv 3
 set tce:nonhf T
 set tce:ducc_model 6

 set tce:printtol 0.02

 task tce
================================================================================

 Output coordinates in a.u. (scale by  1.000000000 to convert to a.u.)

  No.       Tag          Charge          X              Y              Z
 ---- ---------------- ---------- -------------- -------------- --------------
    1 O                    8.0000    -0.17255800    -0.18769265     0.00000000
    2 H                    1.0000    -0.17255800     2.33783385     0.00000000
    3 H                    1.0000     1.55302200    -0.83629265     0.00000000

 Vector    1  Occ=1.999992D+00  E=-2.057081D+01  Symmetry=a

 Vector    2  Occ=1.998081D+00  E=-1.286848D+00  Symmetry=a

 Vector    3  Occ=1.982670D+00  E=-6.589266D-01  Symmetry=a

 Vector    4  Occ=1.974455D+00  E=-5.327081D-01  Symmetry=a

 Vector    5  Occ=1.932532D+00  E=-5.088165D-01  Symmetry=a

 Vector    6  Occ=6.932524D-02  E=-4.653909D-02  Symmetry=a

 Vector    7  Occ=2.638067D-02  E=-2.587247D-02  Symmetry=a

 Vector    8  Occ=1.656492D-02  E=-1.320633D-02  Symmetry=a

 Vector    9  Occ=0.000000D+00  E= 4.887420D-01  Symmetry=a

 Vector   10  Occ=0.000000D+00  E= 5.431249D-01  Symmetry=a

 Vector   11  Occ=0.000000D+00  E= 1.034888D+00  Symmetry=a

 Vector   12  Occ=0.000000D+00  E= 1.208898D+00  Symmetry=a

 Vector   13  Occ=0.000000D+00  E= 1.442730D+00  Symmetry=a

 Vector   14  Occ=0.000000D+00  E= 1.533851D+00  Symmetry=a

 Vector   15  Occ=0.000000D+00  E= 1.660265D+00  Symmetry=a

 Vector   16  Occ=0.000000D+00  E= 1.664443D+00  Symmetry=a

 Vector   17  Occ=0.000000D+00  E= 1.726010D+00  Symmetry=a

 Vector   18  Occ=0.000000D+00  E= 2.064634D+00  Symmetry=a

         Total SCF energy =    -75.942702176297

 Vector    2  Occ=2.000000D+00  E=-1.286848D+00

 Vector    3  Occ=2.000000D+00  E=-6.589266D-01

 Vector    4  Occ=2.000000D+00  E=-5.327081D-01

 Vector    5  Occ=2.000000D+00  E=-5.088165D-01

 Vector    6  Occ=0.000000D+00  E=-4.653909D-02

 Vector    7  Occ=0.000000D+00  E=-2.587247D-02

 Vector    8  Occ=0.000000D+00  E=-1.320633D-02

 Vector    9  Occ=0.000000D+00  E= 4.887420D-01

 Vector   10  Occ=0.000000D+00  E= 5.431249D-01

 Vector   11  Occ=0.000000D+00  E= 1.034888D+00

 Vector   12  Occ=0.000000D+00  E= 1.208898D+00

 Vector   13  Occ=0.000000D+00  E= 1.442730D+00

 Vector   14  Occ=0.000000D+00  E= 1.533851D+00

 Vector   15  Occ=0.000000D+00  E= 1.660265D+00

       Multipole analysis of the density wrt the origin
       ------------------------------------------------

     L   x y z        total         open         nuclear
     -   - - -        -----         ----         -------
     0   0 0 0     -0.000000      0.000000     10.000000

     1   1 0 0      0.592416      0.000000     -0.000000
     1   0 1 0      0.436753      0.000000     -0.000000
     1   0 0 1     -0.000000      0.000000      0.000000

     2   2 0 0     -4.239595      0.000000      2.679864
     2   1 1 0     -0.787884      0.000000     -1.443090
     2   1 0 1      0.000000      0.000000      0.000000
     2   0 2 0     -2.980529      0.000000      6.446681
     2   0 1 1     -0.000000      0.000000      0.000000

 CCSD total energy / hartree       =       -76.173016128345523
 Total times  cpu:        7.3s     wall:        9.2s
