============================== echo of input deck ==============================
 echo
 start H2O
 title "H2O"

 memory total 24 gb

 geometry units bohr
 symmetry c1
        O  0.00000000  0.00000000  0.00000000
        H  0.00000000  2.5623955  0.00000000
        H  1.72558000 -0.64860000  0.00000000
 end

 basis spherical
   * library cc-pVDZ
 end

 mcscf
   active  8
   actelec 10
   multiplicity 1
   maxiter 40
   vectors input h2o.mos
   vectors output h2o.mos
 end

 task mcscf

 scf
   vectors input h2o.mos
   vectors output h2o-trash.mos
   noscf
 end

 tce
   2eorb
   2emet 13
   ccsd
   maxiter 300
 end

# set tce:print_integrals T
# set tce:qorb 8
# set tce:qela 5
# set tce:qelb 5

 set tce:qducc T
 set tce:nactv 3
 set tce:nonhf T
 set tce:ducc_model 6

 set tce:printtol 0.02

 task tce
================================================================================

 Output coordinates in a.u. (scale by  1.000000000 to convert to a.u.)

  No.       Tag          Charge          X              Y              Z
 ---- ---------------- ---------- -------------- -------------- --------------
    1 O                    8.0000    -0.17255800    -0.19137955     0.00000000
    2 H                    1.0000    -0.17255800     2.37101595     0.00000000
    3 H                    1.0000     1.55302200    -0.83997955     0.00000000

 Vector    1  Occ=1.999992D+00  E=-2.057232D+01  Symmetry=a

 Vector    2  Occ=1.998050D+00  E=-1.286202D+00  Symmetry=a

 Vector    3  Occ=1.982691D+00  E=-6.573066D-01  Symmetry=a

 Vector    4  Occ=1.974381D+00  E=-5.301309D-01  Symmetry=a

 Vector    5  Occ=1.928091D+00  E=-5.093256D-01  Symmetry=a

 Vector    6  Occ=7.380765D-02  E=-4.819980D-02  Symmetry=a

 Vector    7  Occ=2.645704D-02  E=-2.588773D-02  Symmetry=a

 Vector    8  Occ=1.653074D-02  E=-1.314022D-02  Symmetry=a

 Vector    9  Occ=0.000000D+00  E= 4.885541D-01  Symmetry=a

 Vector   10  Occ=0.000000D+00  E= 5.460953D-01  Symmetry=a

 Vector   11  Occ=0.000000D+00  E= 1.035807D+00  Symmetry=a

 Vector   12  Occ=0.000000D+00  E= 1.216157D+00  Symmetry=a

 Vector   13  Occ=0.000000D+00  E= 1.443257D+00  Symmetry=a

 Vector   14  Occ=0.000000D+00  E= 1.535544D+00  Symmetry=a

 Vector   15  Occ=0.000000D+00  E= 1.641333D+00  Symmetry=a

 Vector   16  Occ=0.000000D+00  E= 1.661774D+00  Symmetry=a

 Vector   17  Occ=0.000000D+00  E= 1.718023D+00  Symmetry=a

 Vector   18  Occ=0.000000D+00  E= 2.068011D+00  Symmetry=a

         Total SCF energy =    -75.937241137790

 Vector    2  Occ=2.000000D+00  E=-1.286202D+00

 Vector    3  Occ=2.000000D+00  E=-6.573066D-01

 Vector    4  Occ=2.000000D+00  E=-5.301309D-01

 Vector    5  Occ=2.000000D+00  E=-5.093256D-01

 Vector    6  Occ=0.000000D+00  E=-4.819980D-02

 Vector    7  Occ=0.000000D+00  E=-2.588773D-02

 Vector    8  Occ=0.000000D+00  E=-1.314022D-02

 Vector    9  Occ=0.000000D+00  E= 4.885541D-01

 Vector   10  Occ=0.000000D+00  E= 5.460953D-01

 Vector   11  Occ=0.000000D+00  E= 1.035807D+00

 Vector   12  Occ=0.000000D+00  E= 1.216157D+00

 Vector   13  Occ=0.000000D+00  E= 1.443257D+00

 Vector   14  Occ=0.000000D+00  E= 1.535544D+00

 Vector   15  Occ=0.000000D+00  E= 1.641333D+00

       Multipole analysis of the density wrt the origin
       ------------------------------------------------

     L   x y z        total         open         nuclear
     -   - - -        -----         ----         -------
     0   0 0 0     -0.000000      0.000000     10.000000

     1   1 0 0      0.592300      0.000000     -0.000000
     1   0 1 0      0.431137      0.000000      0.000000
     1   0 0 1     -0.000000      0.000000      0.000000

     2   2 0 0     -4.250162      0.000000      2.679864
     2   1 1 0     -0.787250      0.000000     -1.449452
     2   1 0 1      0.000000      0.000000      0.000000
     2   0 2 0     -2.966814      0.000000      6.620291
     2   0 1 1     -0.000000      0.000000      0.000000

 CCSD total energy / hartree       =       -76.168627488253478
 Total times  cpu:        7.0s     wall:        9.0s
