============================== echo of input deck ==============================
 echo
 start H2O
 title "H2O"

 memory total 24 gb

 geometry units bohr
 symmetry c1
        O  0.00000000  0.00000000  0.00000000
        H  0.00000000  2.58083  0.00000000
        H  1.72558000 -0.64860000  0.00000000
 end

 basis spherical
   * library cc-pVDZ
 end

 mcscf
   active  8
   actelec 10
   multiplicity 1
   maxiter 40
   vectors input h2o.mos
   vectors output h2o.mos
 end

 task mcscf

 scf
   vectors input h2o.mos
   vectors output h2o-trash.mos
   noscf
 end

 tce
   2eorb
   2emet 13
   ccsd
   maxiter 300
 end

# set tce:print_integrals T
# set tce:qorb 8
# set tce:qela 5
# set tce:qelb 5

 set tce:qducc T
 set tce:nactv 3
 set tce:nonhf T
 set tce:ducc_model 6

 set tce:printtol 0.02

 task tce
================================================================================

 Output coordinates in a.u. (scale by  1.000000000 to convert to a.u.)

  No.       Tag          Charge          X              Y              Z
 ---- ---------------- ---------- -------------- -------------- --------------
    1 O                    8.0000    -0.17255800    -0.19322300     0.00000000
    2 H                    1.0000    -0.17255800     2.38760700     0.00000000
    3 H                    1.0000     1.55302200    -0.84182300     0.00000000

 Vector    1  Occ=1.999992D+00  E=-2.057308D+01  Symmetry=a

 Vector    2  Occ=1.998035D+00  E=-1.285930D+00  Symmetry=a

 Vector    3  Occ=1.982706D+00  E=-6.565700D-01  Symmetry=a

 Vector    4  Occ=1.974346D+00  E=-5.288098D-01  Symmetry=a

 Vector    5  Occ=1.925749D+00  E=-5.096020D-01  Symmetry=a

 Vector    6  Occ=7.616909D-02  E=-4.905973D-02  Symmetry=a

 Vector    7  Occ=2.649326D-02  E=-2.589492D-02  Symmetry=a

 Vector    8  Occ=1.651092D-02  E=-1.310719D-02  Symmetry=a

 Vector    9  Occ=0.000000D+00  E= 4.884135D-01  Symmetry=a

 Vector   10  Occ=0.000000D+00  E= 5.476187D-01  Symmetry=a

 Vector   11  Occ=0.000000D+00  E= 1.036310D+00  Symmetry=a

 Vector   12  Occ=0.000000D+00  E= 1.219655D+00  Symmetry=a

 Vector   13  Occ=0.000000D+00  E= 1.443545D+00  Symmetry=a

 Vector   14  Occ=0.000000D+00  E= 1.536333D+00  Symmetry=a

 Vector   15  Occ=0.000000D+00  E= 1.631975D+00  Symmetry=a

 Vector   16  Occ=0.000000D+00  E= 1.660407D+00  Symmetry=a

 Vector   17  Occ=0.000000D+00  E= 1.714159D+00  Symmetry=a

 Vector   18  Occ=0.000000D+00  E= 2.069823D+00  Symmetry=a

         Total SCF energy =    -75.934512762398

 Vector    2  Occ=2.000000D+00  E=-1.285930D+00

 Vector    3  Occ=2.000000D+00  E=-6.565700D-01

 Vector    4  Occ=2.000000D+00  E=-5.288098D-01

 Vector    5  Occ=2.000000D+00  E=-5.096020D-01

 Vector    6  Occ=0.000000D+00  E=-4.905973D-02

 Vector    7  Occ=0.000000D+00  E=-2.589492D-02

 Vector    8  Occ=0.000000D+00  E=-1.310719D-02

 Vector    9  Occ=0.000000D+00  E= 4.884135D-01

 Vector   10  Occ=0.000000D+00  E= 5.476187D-01

 Vector   11  Occ=0.000000D+00  E= 1.036310D+00

 Vector   12  Occ=0.000000D+00  E= 1.219655D+00

 Vector   13  Occ=0.000000D+00  E= 1.443545D+00

 Vector   14  Occ=0.000000D+00  E= 1.536333D+00

 Vector   15  Occ=0.000000D+00  E= 1.631975D+00

       Multipole analysis of the density wrt the origin
       ------------------------------------------------

     L   x y z        total         open         nuclear
     -   - - -        -----         ----         -------
     0   0 0 0     -0.000000      0.000000     10.000000

     1   1 0 0      0.592263      0.000000     -0.000000
     1   0 1 0      0.428055      0.000000      0.000000
     1   0 0 1     -0.000000      0.000000      0.000000

     2   2 0 0     -4.255324      0.000000      2.679864
     2   1 1 0     -0.786830      0.000000     -1.452633
     2   1 0 1      0.000000      0.000000      0.000000
     2   0 2 0     -2.960605      0.000000      6.708014
     2   0 1 1     -0.000000      0.000000      0.000000

 CCSD total energy / hartree       =       -76.166448286293360
 Total times  cpu:        7.1s     wall:        9.0s
