============================== echo of input deck ==============================
 echo
 start H2O
 title "H2O"

 memory total 24 gb

 geometry units bohr
 symmetry c1
        O  0.00000000  0.00000000  0.00000000
        H  0.00000000  2.765175  0.00000000
        H  1.72558000 -0.64860000  0.00000000
 end

 basis spherical
   * library cc-pVDZ
 end

 mcscf
   active  8
   actelec 10
   multiplicity 1
   maxiter 40
   vectors input h2o.mos
   vectors output h2o.mos
 end

 task mcscf

 scf
   vectors input h2o.mos
   vectors output h2o-trash.mos
   noscf
 end

 tce
   2eorb
   2emet 13
   ccsd
   maxiter 300
 end

# set tce:print_integrals T
# set tce:qorb 8
# set tce:qela 5
# set tce:qelb 5

 set tce:qducc T
 set tce:nactv 3
 set tce:nonhf T
 set tce:ducc_model 6

 set tce:printtol 0.02

 task tce
================================================================================

 Output coordinates in a.u. (scale by  1.000000000 to convert to a.u.)

  No.       Tag          Charge          X              Y              Z
 ---- ---------------- ---------- -------------- -------------- --------------
    1 O                    8.0000    -0.17255800    -0.21165750     0.00000000
    2 H                    1.0000    -0.17255800     2.55351750     0.00000000
    3 H                    1.0000     1.55302200    -0.86025750     0.00000000

 Vector    1  Occ=1.999992D+00  E=-2.058083D+01  Symmetry=a

 Vector    2  Occ=1.997931D+00  E=-1.284646D+00  Symmetry=a

 Vector    3  Occ=1.982961D+00  E=-6.514999D-01  Symmetry=a

 Vector    4  Occ=1.974075D+00  E=-5.146782D-01  Symmetry=a

 Vector    5  Occ=1.897381D+00  E=-5.128943D-01  Symmetry=a

 Vector    6  Occ=1.046538D-01  E=-5.847500D-02  Symmetry=a

 Vector    7  Occ=2.678189D-02  E=-2.595195D-02  Symmetry=a

 Vector    8  Occ=1.622345D-02  E=-1.280031D-02  Symmetry=a

 Vector    9  Occ=0.000000D+00  E= 4.863109D-01  Symmetry=a

 Vector   10  Occ=0.000000D+00  E= 5.632002D-01  Symmetry=a

 Vector   11  Occ=0.000000D+00  E= 1.042003D+00  Symmetry=a

 Vector   12  Occ=0.000000D+00  E= 1.246236D+00  Symmetry=a

 Vector   13  Occ=0.000000D+00  E= 1.447256D+00  Symmetry=a

 Vector   14  Occ=0.000000D+00  E= 1.537905D+00  Symmetry=a

 Vector   15  Occ=0.000000D+00  E= 1.549896D+00  Symmetry=a

 Vector   16  Occ=0.000000D+00  E= 1.645660D+00  Symmetry=a

 Vector   17  Occ=0.000000D+00  E= 1.678769D+00  Symmetry=a

 Vector   18  Occ=0.000000D+00  E= 2.088804D+00  Symmetry=a

         Total SCF energy =    -75.907516824806

 Vector    2  Occ=2.000000D+00  E=-1.284646D+00

 Vector    3  Occ=2.000000D+00  E=-6.514999D-01

 Vector    4  Occ=2.000000D+00  E=-5.146782D-01

 Vector    5  Occ=2.000000D+00  E=-5.128943D-01

 Vector    6  Occ=0.000000D+00  E=-5.847500D-02

 Vector    7  Occ=0.000000D+00  E=-2.595195D-02

 Vector    8  Occ=0.000000D+00  E=-1.280031D-02

 Vector    9  Occ=0.000000D+00  E= 4.863109D-01

 Vector   10  Occ=0.000000D+00  E= 5.632002D-01

 Vector   11  Occ=0.000000D+00  E= 1.042003D+00

 Vector   12  Occ=0.000000D+00  E= 1.246236D+00

 Vector   13  Occ=0.000000D+00  E= 1.447256D+00

 Vector   14  Occ=0.000000D+00  E= 1.537905D+00

 Vector   15  Occ=0.000000D+00  E= 1.549896D+00

       Multipole analysis of the density wrt the origin
       ------------------------------------------------

     L   x y z        total         open         nuclear
     -   - - -        -----         ----         -------
     0   0 0 0     -0.000000      0.000000     10.000000

     1   1 0 0      0.592646      0.000000     -0.000000
     1   0 1 0      0.387826      0.000000     -0.000000
     1   0 0 1     -0.000000      0.000000      0.000000

     2   2 0 0     -4.302295      0.000000      2.679864
     2   1 1 0     -0.778911      0.000000     -1.484443
     2   1 0 1      0.000000      0.000000      0.000000
     2   0 2 0     -2.923384      0.000000      7.618886
     2   0 1 1     -0.000000      0.000000      0.000000

 CCSD total energy / hartree       =       -76.145459798033343
 Total times  cpu:        8.3s     wall:       11.9s
