============================== echo of input deck ==============================
 echo
 start H2O
 title "H2O"

 memory total 24 gb

 geometry units bohr
 symmetry c1
        O  0.00000000  0.00000000  0.00000000
        H  0.00000000  2.8573475  0.00000000
        H  1.72558000 -0.64860000  0.00000000
 end

 basis spherical
   * library cc-pVDZ
 end

 mcscf
   active  8
   actelec 10
   multiplicity 1
   maxiter 40
   vectors input h2o.mos
   vectors output h2o.mos
 end

 task mcscf

 scf
   vectors input h2o.mos
   vectors output h2o-trash.mos
   noscf
 end

 tce
   2eorb
   2emet 13
   ccsd
   maxiter 300
 end

# set tce:print_integrals T
# set tce:qorb 8
# set tce:qela 5
# set tce:qelb 5

 set tce:qducc T
 set tce:nactv 3
 set tce:nonhf T
 set tce:ducc_model 6

 set tce:printtol 0.02

 task tce
================================================================================

 Output coordinates in a.u. (scale by  1.000000000 to convert to a.u.)

  No.       Tag          Charge          X              Y              Z
 ---- ---------------- ---------- -------------- -------------- --------------
    1 O                    8.0000    -0.17255800    -0.22087475     0.00000000
    2 H                    1.0000    -0.17255800     2.63647275     0.00000000
    3 H                    1.0000     1.55302200    -0.86947475     0.00000000

 Vector    1  Occ=1.999992D+00  E=-2.058472D+01  Symmetry=a

 Vector    2  Occ=1.997913D+00  E=-1.285030D+00  Symmetry=a

 Vector    3  Occ=1.983156D+00  E=-6.505285D-01  Symmetry=a

 Vector    4  Occ=1.973994D+00  E=-5.150356D-01  Symmetry=a

 Vector    5  Occ=1.879521D+00  E=-5.068005D-01  Symmetry=a

 Vector    6  Occ=1.225163D-01  E=-6.418932D-02  Symmetry=a

 Vector    7  Occ=2.687635D-02  E=-2.597301D-02  Symmetry=a

 Vector    8  Occ=1.603073D-02  E=-1.264905D-02  Symmetry=a

 Vector    9  Occ=0.000000D+00  E= 4.841133D-01  Symmetry=a

 Vector   10  Occ=0.000000D+00  E= 5.720235D-01  Symmetry=a

 Vector   11  Occ=0.000000D+00  E= 1.045996D+00  Symmetry=a

 Vector   12  Occ=0.000000D+00  E= 1.254402D+00  Symmetry=a

 Vector   13  Occ=0.000000D+00  E= 1.449554D+00  Symmetry=a

 Vector   14  Occ=0.000000D+00  E= 1.508924D+00  Symmetry=a

 Vector   15  Occ=0.000000D+00  E= 1.545941D+00  Symmetry=a

 Vector   16  Occ=0.000000D+00  E= 1.637891D+00  Symmetry=a

 Vector   17  Occ=0.000000D+00  E= 1.663543D+00  Symmetry=a

 Vector   18  Occ=0.000000D+00  E= 2.096599D+00  Symmetry=a

         Total SCF energy =    -75.894342320424

 Vector    2  Occ=2.000000D+00  E=-1.285030D+00

 Vector    3  Occ=2.000000D+00  E=-6.505285D-01

 Vector    4  Occ=2.000000D+00  E=-5.150356D-01

 Vector    5  Occ=2.000000D+00  E=-5.068005D-01

 Vector    6  Occ=0.000000D+00  E=-6.418932D-02

 Vector    7  Occ=0.000000D+00  E=-2.597301D-02

 Vector    8  Occ=0.000000D+00  E=-1.264905D-02

 Vector    9  Occ=0.000000D+00  E= 4.841133D-01

 Vector   10  Occ=0.000000D+00  E= 5.720235D-01

 Vector   11  Occ=0.000000D+00  E= 1.045996D+00

 Vector   12  Occ=0.000000D+00  E= 1.254402D+00

 Vector   13  Occ=0.000000D+00  E= 1.449554D+00

 Vector   14  Occ=0.000000D+00  E= 1.508924D+00

 Vector   15  Occ=0.000000D+00  E= 1.545941D+00

       Multipole analysis of the density wrt the origin
       ------------------------------------------------

     L   x y z        total         open         nuclear
     -   - - -        -----         ----         -------
     0   0 0 0     -0.000000      0.000000     10.000000

     1   1 0 0      0.593287      0.000000     -0.000000
     1   0 1 0      0.362091      0.000000      0.000000
     1   0 0 1     -0.000000      0.000000      0.000000

     2   2 0 0     -4.322475      0.000000      2.679864
     2   1 1 0     -0.772527      0.000000     -1.500348
     2   1 0 1      0.000000      0.000000      0.000000
     2   0 2 0     -2.921788      0.000000      8.097260
     2   0 1 1     -0.000000      0.000000      0.000000

 CCSD total energy / hartree       =       -76.135667741063358
 Total times  cpu:        8.8s     wall:       12.3s
