============================== echo of input deck ==============================
 echo
 start H2O
 title "H2O"

 memory total 24 gb

 geometry units bohr
 symmetry c1
        O  0.00000000  0.00000000  0.00000000
        H  0.00000000  3.133865  0.00000000
        H  1.72558000 -0.64860000  0.00000000
 end

 basis spherical
   * library cc-pVDZ
 end

 mcscf
   active  8
   actelec 10
   multiplicity 1
   maxiter 40
   vectors input h2o.mos
   vectors output h2o.mos
 end

 task mcscf

 scf
   vectors input h2o.mos
   vectors output h2o-trash.mos
   noscf
 end

 tce
   2eorb
   2emet 13
   ccsd
   maxiter 300
 end

# set tce:print_integrals T
# set tce:qorb 8
# set tce:qela 5
# set tce:qelb 5

 set tce:qducc T
 set tce:nactv 3
 set tce:nonhf T
 set tce:ducc_model 6

 set tce:printtol 0.02

 task tce
================================================================================

 Output coordinates in a.u. (scale by  1.000000000 to convert to a.u.)

  No.       Tag          Charge          X              Y              Z
 ---- ---------------- ---------- -------------- -------------- --------------
    1 O                    8.0000    -0.17255800    -0.24852650     0.00000000
    2 H                    1.0000    -0.17255800     2.88533850     0.00000000
    3 H                    1.0000     1.55302200    -0.89712650     0.00000000

 Vector    1  Occ=1.999993D+00  E=-2.059546D+01  Symmetry=a

 Vector    2  Occ=1.997978D+00  E=-1.288325D+00  Symmetry=a

 Vector    3  Occ=1.983904D+00  E=-6.515027D-01  Symmetry=a

 Vector    4  Occ=1.973929D+00  E=-5.220884D-01  Symmetry=a

 Vector    5  Occ=1.810625D+00  E=-4.809599D-01  Symmetry=a

 Vector    6  Occ=1.912187D-01  E=-8.464518D-02  Symmetry=a

 Vector    7  Occ=2.699555D-02  E=-2.600927D-02  Symmetry=a

 Vector    8  Occ=1.535727D-02  E=-1.226154D-02  Symmetry=a

 Vector    9  Occ=0.000000D+00  E= 4.752574D-01  Symmetry=a

 Vector   10  Occ=0.000000D+00  E= 5.993753D-01  Symmetry=a

 Vector   11  Occ=0.000000D+00  E= 1.059587D+00  Symmetry=a

 Vector   12  Occ=0.000000D+00  E= 1.245499D+00  Symmetry=a

 Vector   13  Occ=0.000000D+00  E= 1.448519D+00  Symmetry=a

 Vector   14  Occ=0.000000D+00  E= 1.457754D+00  Symmetry=a

 Vector   15  Occ=0.000000D+00  E= 1.546181D+00  Symmetry=a

 Vector   16  Occ=0.000000D+00  E= 1.614299D+00  Symmetry=a

 Vector   17  Occ=0.000000D+00  E= 1.627152D+00  Symmetry=a

 Vector   18  Occ=0.000000D+00  E= 2.100053D+00  Symmetry=a

         Total SCF energy =    -75.856657168351

 Vector    2  Occ=2.000000D+00  E=-1.288325D+00

 Vector    3  Occ=2.000000D+00  E=-6.515027D-01

 Vector    4  Occ=2.000000D+00  E=-5.220884D-01

 Vector    5  Occ=2.000000D+00  E=-4.809599D-01

 Vector    6  Occ=0.000000D+00  E=-8.464518D-02

 Vector    7  Occ=0.000000D+00  E=-2.600927D-02

 Vector    8  Occ=0.000000D+00  E=-1.226154D-02

 Vector    9  Occ=0.000000D+00  E= 4.752574D-01

 Vector   10  Occ=0.000000D+00  E= 5.993753D-01

 Vector   11  Occ=0.000000D+00  E= 1.059587D+00

 Vector   12  Occ=0.000000D+00  E= 1.245499D+00

 Vector   13  Occ=0.000000D+00  E= 1.448519D+00

 Vector   14  Occ=0.000000D+00  E= 1.457754D+00

 Vector   15  Occ=0.000000D+00  E= 1.546181D+00

       Multipole analysis of the density wrt the origin
       ------------------------------------------------

     L   x y z        total         open         nuclear
     -   - - -        -----         ----         -------
     0   0 0 0     -0.000000      0.000000     10.000000

     1   1 0 0      0.596445      0.000000     -0.000000
     1   0 1 0      0.270939      0.000000      0.000000
     1   0 0 1     -0.000000      0.000000      0.000000

     2   2 0 0     -4.369686      0.000000      2.679864
     2   1 1 0     -0.745617      0.000000     -1.548064
     2   1 0 1      0.000000      0.000000      0.000000
     2   0 2 0     -2.975622      0.000000      9.624138
     2   0 1 1     -0.000000      0.000000      0.000000

 CCSD total energy / hartree       =       -76.109729449223053
 Total times  cpu:        9.0s     wall:       13.0s
