============================== echo of input deck ==============================
 echo
 start H2O
 title "H2O"

 memory total 24 gb

 geometry units bohr
 symmetry c1
        O  0.00000000  0.00000000  0.00000000
        H  0.00000000  3.2260375  0.00000000
        H  1.72558000 -0.64860000  0.00000000
 end

 basis spherical
   * library cc-pVDZ
 end

 mcscf
   active  8
   actelec 10
   multiplicity 1
   maxiter 40
   vectors input h2o.mos
   vectors output h2o.mos
 end

 task mcscf

 scf
   vectors input h2o.mos
   vectors output h2o-trash.mos
   noscf
 end

 tce
   2eorb
   2emet 13
   ccsd
   maxiter 300
 end

# set tce:print_integrals T
# set tce:qorb 8
# set tce:qela 5
# set tce:qelb 5

 set tce:qducc T
 set tce:nactv 3
 set tce:nonhf T
 set tce:ducc_model 6

 set tce:printtol 0.02

 task tce
================================================================================

 Output coordinates in a.u. (scale by  1.000000000 to convert to a.u.)

  No.       Tag          Charge          X              Y              Z
 ---- ---------------- ---------- -------------- -------------- --------------
    1 O                    8.0000    -0.17255800    -0.25774375     0.00000000
    2 H                    1.0000    -0.17255800     2.96829375     0.00000000
    3 H                    1.0000     1.55302200    -0.90634375     0.00000000

 Vector    1  Occ=1.999993D+00  E=-2.059850D+01  Symmetry=a

 Vector    2  Occ=1.998028D+00  E=-1.289746D+00  Symmetry=a

 Vector    3  Occ=1.984176D+00  E=-6.525473D-01  Symmetry=a

 Vector    4  Occ=1.973952D+00  E=-5.243771D-01  Symmetry=a

 Vector    5  Occ=1.782939D+00  E=-4.719172D-01  Symmetry=a

 Vector    6  Occ=2.187921D-01  E=-9.238137D-02  Symmetry=a

 Vector    7  Occ=2.699423D-02  E=-2.601199D-02  Symmetry=a

 Vector    8  Occ=1.512608D-02  E=-1.215606D-02  Symmetry=a

 Vector    9  Occ=0.000000D+00  E= 4.719624D-01  Symmetry=a

 Vector   10  Occ=0.000000D+00  E= 6.083337D-01  Symmetry=a

 Vector   11  Occ=0.000000D+00  E= 1.064230D+00  Symmetry=a

 Vector   12  Occ=0.000000D+00  E= 1.232878D+00  Symmetry=a

 Vector   13  Occ=0.000000D+00  E= 1.441863D+00  Symmetry=a

 Vector   14  Occ=0.000000D+00  E= 1.460882D+00  Symmetry=a

 Vector   15  Occ=0.000000D+00  E= 1.544941D+00  Symmetry=a

 Vector   16  Occ=0.000000D+00  E= 1.606710D+00  Symmetry=a

 Vector   17  Occ=0.000000D+00  E= 1.618329D+00  Symmetry=a

 Vector   18  Occ=0.000000D+00  E= 2.092098D+00  Symmetry=a

         Total SCF energy =    -75.844778631398

 Vector    2  Occ=2.000000D+00  E=-1.289746D+00

 Vector    3  Occ=2.000000D+00  E=-6.525473D-01

 Vector    4  Occ=2.000000D+00  E=-5.243771D-01

 Vector    5  Occ=2.000000D+00  E=-4.719172D-01

 Vector    6  Occ=0.000000D+00  E=-9.238137D-02

 Vector    7  Occ=0.000000D+00  E=-2.601199D-02

 Vector    8  Occ=0.000000D+00  E=-1.215606D-02

 Vector    9  Occ=0.000000D+00  E= 4.719624D-01

 Vector   10  Occ=0.000000D+00  E= 6.083337D-01

 Vector   11  Occ=0.000000D+00  E= 1.064230D+00

 Vector   12  Occ=0.000000D+00  E= 1.232878D+00

 Vector   13  Occ=0.000000D+00  E= 1.441863D+00

 Vector   14  Occ=0.000000D+00  E= 1.460882D+00

 Vector   15  Occ=0.000000D+00  E= 1.544941D+00

       Multipole analysis of the density wrt the origin
       ------------------------------------------------

     L   x y z        total         open         nuclear
     -   - - -        -----         ----         -------
     0   0 0 0     -0.000000      0.000000     10.000000

     1   1 0 0      0.597751      0.000000     -0.000000
     1   0 1 0      0.238472      0.000000     -0.000000
     1   0 0 1     -0.000000      0.000000      0.000000

     2   2 0 0     -4.381134      0.000000      2.679864
     2   1 1 0     -0.734834      0.000000     -1.563969
     2   1 0 1     -0.000000      0.000000      0.000000
     2   0 2 0     -3.008480      0.000000     10.163682
     2   0 1 1     -0.000000      0.000000      0.000000

 CCSD total energy / hartree       =       -76.102285808845394
 Total times  cpu:        9.1s     wall:       12.9s
