============================== echo of input deck ==============================
 echo
 start H2O
 title "H2O"

 memory total 24 gb

 geometry units bohr
 symmetry c1
        O  0.00000000  0.00000000  0.00000000
        H  0.00000000  3.31821  0.00000000
        H  1.72558000 -0.64860000  0.00000000
 end

 basis spherical
   * library cc-pVDZ
 end

 mcscf
   active  8
   actelec 10
   multiplicity 1
   maxiter 40
   vectors input h2o.mos
   vectors output h2o.mos
 end

 task mcscf

 scf
   vectors input h2o.mos
   vectors output h2o-trash.mos
   noscf
 end

 tce
   2eorb
   2emet 13
   ccsd
   maxiter 300
 end

# set tce:print_integrals T
# set tce:qorb 8
# set tce:qela 5
# set tce:qelb 5

 set tce:qducc T
 set tce:nactv 3
 set tce:nonhf T
 set tce:ducc_model 6

 set tce:printtol 0.02

 task tce
================================================================================

 Output coordinates in a.u. (scale by  1.000000000 to convert to a.u.)

  No.       Tag          Charge          X              Y              Z
 ---- ---------------- ---------- -------------- -------------- --------------
    1 O                    8.0000    -0.17255800    -0.26696100     0.00000000
    2 H                    1.0000    -0.17255800     3.05124900     0.00000000
    3 H                    1.0000     1.55302200    -0.91556100     0.00000000

 Vector    1  Occ=1.999993D+00  E=-2.060119D+01  Symmetry=a

 Vector    2  Occ=1.998086D+00  E=-1.291172D+00  Symmetry=a

 Vector    3  Occ=1.984445D+00  E=-6.537207D-01  Symmetry=a

 Vector    4  Occ=1.973989D+00  E=-5.265283D-01  Symmetry=a

 Vector    5  Occ=1.753296D+00  E=-4.628138D-01  Symmetry=a

 Vector    6  Occ=2.483102D-01  E=-1.004399D-01  Symmetry=a

 Vector    7  Occ=2.697939D-02  E=-2.601115D-02  Symmetry=a

 Vector    8  Occ=1.490101D-02  E=-1.206154D-02  Symmetry=a

 Vector    9  Occ=0.000000D+00  E= 4.686413D-01  Symmetry=a

 Vector   10  Occ=0.000000D+00  E= 6.170737D-01  Symmetry=a

 Vector   11  Occ=0.000000D+00  E= 1.068765D+00  Symmetry=a

 Vector   12  Occ=0.000000D+00  E= 1.218129D+00  Symmetry=a

 Vector   13  Occ=0.000000D+00  E= 1.439616D+00  Symmetry=a

 Vector   14  Occ=0.000000D+00  E= 1.464147D+00  Symmetry=a

 Vector   15  Occ=0.000000D+00  E= 1.543056D+00  Symmetry=a

 Vector   16  Occ=0.000000D+00  E= 1.599401D+00  Symmetry=a

 Vector   17  Occ=0.000000D+00  E= 1.611210D+00  Symmetry=a

 Vector   18  Occ=0.000000D+00  E= 2.079014D+00  Symmetry=a

         Total SCF energy =    -75.833258033102

 Vector    2  Occ=2.000000D+00  E=-1.291172D+00

 Vector    3  Occ=2.000000D+00  E=-6.537207D-01

 Vector    4  Occ=2.000000D+00  E=-5.265283D-01

 Vector    5  Occ=2.000000D+00  E=-4.628138D-01

 Vector    6  Occ=0.000000D+00  E=-1.004399D-01

 Vector    7  Occ=0.000000D+00  E=-2.601115D-02

 Vector    8  Occ=0.000000D+00  E=-1.206154D-02

 Vector    9  Occ=0.000000D+00  E= 4.686413D-01

 Vector   10  Occ=0.000000D+00  E= 6.170737D-01

 Vector   11  Occ=0.000000D+00  E= 1.068765D+00

 Vector   12  Occ=0.000000D+00  E= 1.218129D+00

 Vector   13  Occ=0.000000D+00  E= 1.439616D+00

 Vector   14  Occ=0.000000D+00  E= 1.464147D+00

 Vector   15  Occ=0.000000D+00  E= 1.543056D+00

       Multipole analysis of the density wrt the origin
       ------------------------------------------------

     L   x y z        total         open         nuclear
     -   - - -        -----         ----         -------
     0   0 0 0     -0.000000      0.000000     10.000000

     1   1 0 0      0.599119      0.000000     -0.000000
     1   0 1 0      0.206109      0.000000      0.000000
     1   0 0 1     -0.000000      0.000000      0.000000

     2   2 0 0     -4.390587      0.000000      2.679864
     2   1 1 0     -0.723571      0.000000     -1.579874
     2   1 0 1      0.000000      0.000000      0.000000
     2   0 2 0     -3.046207      0.000000     10.718518
     2   0 1 1     -0.000000      0.000000      0.000000

 CCSD total energy / hartree       =       -76.095438251725170
 Total times  cpu:        9.0s     wall:       13.0s
