============================== echo of input deck ==============================
 echo
 start H2O
 title "H2O"

 memory total 24 gb

 geometry units bohr
 symmetry c1
        O  0.00000000  0.00000000  0.00000000
        H  0.00000000  3.4103825  0.00000000
        H  1.72558000 -0.64860000  0.00000000
 end

 basis spherical
   * library cc-pVDZ
 end

 mcscf
   active  8
   actelec 10
   multiplicity 1
   maxiter 40
   vectors input h2o.mos
   vectors output h2o.mos
 end

 task mcscf

 scf
   vectors input h2o.mos
   vectors output h2o-trash.mos
   noscf
 end

 tce
   2eorb
   2emet 13
   ccsd
   maxiter 300
 end

# set tce:print_integrals T
# set tce:qorb 8
# set tce:qela 5
# set tce:qelb 5

 set tce:qducc T
 set tce:nactv 3
 set tce:nonhf T
 set tce:ducc_model 6

 set tce:printtol 0.02

 task tce
================================================================================

 Output coordinates in a.u. (scale by  1.000000000 to convert to a.u.)

  No.       Tag          Charge          X              Y              Z
 ---- ---------------- ---------- -------------- -------------- --------------
    1 O                    8.0000    -0.17255800    -0.27617825     0.00000000
    2 H                    1.0000    -0.17255800     3.13420425     0.00000000
    3 H                    1.0000     1.55302200    -0.92477825     0.00000000

 Vector    1  Occ=1.999993D+00  E=-2.060351D+01  Symmetry=a

 Vector    2  Occ=1.998149D+00  E=-1.292541D+00  Symmetry=a

 Vector    3  Occ=1.984707D+00  E=-6.549265D-01  Symmetry=a

 Vector    4  Occ=1.974036D+00  E=-5.285029D-01  Symmetry=a

 Vector    5  Occ=1.722027D+00  E=-4.537336D-01  Symmetry=a

 Vector    6  Occ=2.794474D-01  E=-1.087268D-01  Symmetry=a

 Vector    7  Occ=2.695447D-02  E=-2.600710D-02  Symmetry=a

 Vector    8  Occ=1.468591D-02  E=-1.197695D-02  Symmetry=a

 Vector    9  Occ=0.000000D+00  E= 4.653553D-01  Symmetry=a

 Vector   10  Occ=0.000000D+00  E= 6.255049D-01  Symmetry=a

 Vector   11  Occ=0.000000D+00  E= 1.073099D+00  Symmetry=a

 Vector   12  Occ=0.000000D+00  E= 1.202975D+00  Symmetry=a

 Vector   13  Occ=0.000000D+00  E= 1.440225D+00  Symmetry=a

 Vector   14  Occ=0.000000D+00  E= 1.467516D+00  Symmetry=a

 Vector   15  Occ=0.000000D+00  E= 1.540631D+00  Symmetry=a

 Vector   16  Occ=0.000000D+00  E= 1.592433D+00  Symmetry=a

 Vector   17  Occ=0.000000D+00  E= 1.605740D+00  Symmetry=a

 Vector   18  Occ=0.000000D+00  E= 2.060976D+00  Symmetry=a

         Total SCF energy =    -75.822098597373

 Vector    2  Occ=2.000000D+00  E=-1.292541D+00

 Vector    3  Occ=2.000000D+00  E=-6.549265D-01

 Vector    4  Occ=2.000000D+00  E=-5.285029D-01

 Vector    5  Occ=2.000000D+00  E=-4.537336D-01

 Vector    6  Occ=0.000000D+00  E=-1.087268D-01

 Vector    7  Occ=0.000000D+00  E=-2.600710D-02

 Vector    8  Occ=0.000000D+00  E=-1.197695D-02

 Vector    9  Occ=0.000000D+00  E= 4.653553D-01

 Vector   10  Occ=0.000000D+00  E= 6.255049D-01

 Vector   11  Occ=0.000000D+00  E= 1.073099D+00

 Vector   12  Occ=0.000000D+00  E= 1.202975D+00

 Vector   13  Occ=0.000000D+00  E= 1.440225D+00

 Vector   14  Occ=0.000000D+00  E= 1.467516D+00

 Vector   15  Occ=0.000000D+00  E= 1.540631D+00

       Multipole analysis of the density wrt the origin
       ------------------------------------------------

     L   x y z        total         open         nuclear
     -   - - -        -----         ----         -------
     0   0 0 0     -0.000000      0.000000     10.000000

     1   1 0 0      0.600517      0.000000     -0.000000
     1   0 1 0      0.174371      0.000000      0.000000
     1   0 0 1     -0.000000      0.000000      0.000000

     2   2 0 0     -4.398163      0.000000      2.679864
     2   1 1 0     -0.712069      0.000000     -1.595779
     2   1 0 1      0.000000      0.000000      0.000000
     2   0 2 0     -3.087379      0.000000     11.288646
     2   0 1 1     -0.000000      0.000000      0.000000

 CCSD total energy / hartree       =       -76.089170245166983
 Total times  cpu:        9.2s     wall:       13.2s
