============================== echo of input deck ==============================
 echo
 start H2O
 title "H2O"

 memory total 24 gb

 geometry units bohr
 symmetry c1
        O  0.00000000  0.00000000  0.00000000
        H  0.00000000  3.5947275  0.00000000
        H  1.72558000 -0.64860000  0.00000000
 end

 basis spherical
   * library cc-pVDZ
 end

 mcscf
   active  8
   actelec 10
   multiplicity 1
   maxiter 40
   vectors input h2o.mos
   vectors output h2o.mos
 end

 task mcscf

 scf
   vectors input h2o.mos
   vectors output h2o-trash.mos
   noscf
 end

 tce
   2eorb
   2emet 13
   ccsd
   maxiter 300
 end

# set tce:print_integrals T
# set tce:qorb 8
# set tce:qela 5
# set tce:qelb 5

 set tce:qducc T
 set tce:nactv 3
 set tce:nonhf T
 set tce:ducc_model 6

 set tce:printtol 0.02

 task tce
================================================================================

 Output coordinates in a.u. (scale by  1.000000000 to convert to a.u.)

  No.       Tag          Charge          X              Y              Z
 ---- ---------------- ---------- -------------- -------------- --------------
    1 O                    8.0000    -0.17255800    -0.29461275     0.00000000
    2 H                    1.0000    -0.17255800     3.30011475     0.00000000
    3 H                    1.0000     1.55302200    -0.94321275     0.00000000

 Vector    1  Occ=1.999993D+00  E=-2.060712D+01  Symmetry=a

 Vector    2  Occ=1.998279D+00  E=-1.294955D+00  Symmetry=a

 Vector    3  Occ=1.985189D+00  E=-6.571807D-01  Symmetry=a

 Vector    4  Occ=1.974147D+00  E=-5.318436D-01  Symmetry=a

 Vector    5  Occ=1.656141D+00  E=-4.359397D-01  Symmetry=a

 Vector    6  Occ=3.450692D-01  E=-1.255999D-01  Symmetry=a

 Vector    7  Occ=2.688651D-02  E=-2.599087D-02  Symmetry=a

 Vector    8  Occ=1.429563D-02  E=-1.183353D-02  Symmetry=a

 Vector    9  Occ=0.000000D+00  E= 4.590926D-01  Symmetry=a

 Vector   10  Occ=0.000000D+00  E= 6.410512D-01  Symmetry=a

 Vector   11  Occ=0.000000D+00  E= 1.080810D+00  Symmetry=a

 Vector   12  Occ=0.000000D+00  E= 1.176013D+00  Symmetry=a

 Vector   13  Occ=0.000000D+00  E= 1.445893D+00  Symmetry=a

 Vector   14  Occ=0.000000D+00  E= 1.474418D+00  Symmetry=a

 Vector   15  Occ=0.000000D+00  E= 1.534801D+00  Symmetry=a

 Vector   16  Occ=0.000000D+00  E= 1.579680D+00  Symmetry=a

 Vector   17  Occ=0.000000D+00  E= 1.599155D+00  Symmetry=a

 Vector   18  Occ=0.000000D+00  E= 2.012426D+00  Symmetry=a

         Total SCF energy =    -75.800871225732

 Vector    2  Occ=2.000000D+00  E=-1.294955D+00

 Vector    3  Occ=2.000000D+00  E=-6.571807D-01

 Vector    4  Occ=2.000000D+00  E=-5.318436D-01

 Vector    5  Occ=2.000000D+00  E=-4.359397D-01

 Vector    6  Occ=0.000000D+00  E=-1.255999D-01

 Vector    7  Occ=0.000000D+00  E=-2.599087D-02

 Vector    8  Occ=0.000000D+00  E=-1.183353D-02

 Vector    9  Occ=0.000000D+00  E= 4.590926D-01

 Vector   10  Occ=0.000000D+00  E= 6.410512D-01

 Vector   11  Occ=0.000000D+00  E= 1.080810D+00

 Vector   12  Occ=0.000000D+00  E= 1.176013D+00

 Vector   13  Occ=0.000000D+00  E= 1.445893D+00

 Vector   14  Occ=0.000000D+00  E= 1.474418D+00

 Vector   15  Occ=0.000000D+00  E= 1.534801D+00

       Multipole analysis of the density wrt the origin
       ------------------------------------------------

     L   x y z        total         open         nuclear
     -   - - -        -----         ----         -------
     0   0 0 0     -0.000000      0.000000     10.000000

     1   1 0 0      0.603317      0.000000     -0.000000
     1   0 1 0      0.114380      0.000000      0.000000
     1   0 0 1     -0.000000      0.000000      0.000000

     2   2 0 0     -4.408312      0.000000      2.679864
     2   1 1 0     -0.689239      0.000000     -1.627589
     2   1 0 1      0.000000      0.000000      0.000000
     2   0 2 0     -3.175004      0.000000     12.474781
     2   0 1 1     -0.000000      0.000000      0.000000

 CCSD total energy / hartree       =       -76.078279306639388
 Total times  cpu:        8.5s     wall:       12.0s
