============================== echo of input deck ==============================
 echo
 start H2O
 title "H2O"

 memory total 24 gb

 geometry units bohr
 symmetry c1
        O  0.00000000  0.00000000  0.00000000
        H  0.00000000  3.7790725  0.00000000
        H  1.72558000 -0.64860000  0.00000000
 end

 basis spherical
   * library cc-pVDZ
 end

 mcscf
   active  8
   actelec 10
   multiplicity 1
   maxiter 40
   vectors input h2o.mos
   vectors output h2o.mos
 end

 task mcscf

 scf
   vectors input h2o.mos
   vectors output h2o-trash.mos
   noscf
 end

 tce
   2eorb
   2emet 13
   ccsd
   maxiter 300
 end

# set tce:print_integrals T
# set tce:qorb 8
# set tce:qela 5
# set tce:qelb 5

 set tce:qducc T
 set tce:nactv 3
 set tce:nonhf T
 set tce:ducc_model 6

 set tce:printtol 0.02

 task tce
================================================================================

 Output coordinates in a.u. (scale by  1.000000000 to convert to a.u.)

  No.       Tag          Charge          X              Y              Z
 ---- ---------------- ---------- -------------- -------------- --------------
    1 O                    8.0000    -0.17255800    -0.31304725     0.00000000
    2 H                    1.0000    -0.17255800     3.46602525     0.00000000
    3 H                    1.0000     1.55302200    -0.96164725     0.00000000

 Vector    1  Occ=1.999994D+00  E=-2.060948D+01  Symmetry=a

 Vector    2  Occ=1.998401D+00  E=-1.296825D+00  Symmetry=a

 Vector    3  Occ=1.985603D+00  E=-6.590053D-01  Symmetry=a

 Vector    4  Occ=1.974262D+00  E=-5.343533D-01  Symmetry=a

 Vector    5  Occ=1.588338D+00  E=-4.190475D-01  Symmetry=a

 Vector    6  Occ=4.126285D-01  E=-1.422632D-01  Symmetry=a

 Vector    7  Occ=2.680843D-02  E=-2.596608D-02  Symmetry=a

 Vector    8  Occ=1.396553D-02  E=-1.171835D-02  Symmetry=a

 Vector    9  Occ=0.000000D+00  E= 4.533725D-01  Symmetry=a

 Vector   10  Occ=0.000000D+00  E= 6.541650D-01  Symmetry=a

 Vector   11  Occ=0.000000D+00  E= 1.086805D+00  Symmetry=a

 Vector   12  Occ=0.000000D+00  E= 1.157363D+00  Symmetry=a

 Vector   13  Occ=0.000000D+00  E= 1.453874D+00  Symmetry=a

 Vector   14  Occ=0.000000D+00  E= 1.481264D+00  Symmetry=a

 Vector   15  Occ=0.000000D+00  E= 1.528839D+00  Symmetry=a

 Vector   16  Occ=0.000000D+00  E= 1.568639D+00  Symmetry=a

 Vector   17  Occ=0.000000D+00  E= 1.597048D+00  Symmetry=a

 Vector   18  Occ=0.000000D+00  E= 1.953181D+00  Symmetry=a

         Total SCF energy =    -75.781088539358

 Vector    2  Occ=2.000000D+00  E=-1.296825D+00

 Vector    3  Occ=2.000000D+00  E=-6.590053D-01

 Vector    4  Occ=2.000000D+00  E=-5.343533D-01

 Vector    5  Occ=2.000000D+00  E=-4.190475D-01

 Vector    6  Occ=0.000000D+00  E=-1.422632D-01

 Vector    7  Occ=0.000000D+00  E=-2.596608D-02

 Vector    8  Occ=0.000000D+00  E=-1.171835D-02

 Vector    9  Occ=0.000000D+00  E= 4.533725D-01

 Vector   10  Occ=0.000000D+00  E= 6.541650D-01

 Vector   11  Occ=0.000000D+00  E= 1.086805D+00

 Vector   12  Occ=0.000000D+00  E= 1.157363D+00

 Vector   13  Occ=0.000000D+00  E= 1.453874D+00

 Vector   14  Occ=0.000000D+00  E= 1.481264D+00

 Vector   15  Occ=0.000000D+00  E= 1.528839D+00

       Multipole analysis of the density wrt the origin
       ------------------------------------------------

     L   x y z        total         open         nuclear
     -   - - -        -----         ----         -------
     0   0 0 0     -0.000000      0.000000     10.000000

     1   1 0 0      0.606037      0.000000     -0.000000
     1   0 1 0      0.060509      0.000000      0.000000
     1   0 0 1     -0.000000      0.000000      0.000000

     2   2 0 0     -4.412705      0.000000      2.679864
     2   1 1 0     -0.667851      0.000000     -1.659399
     2   1 0 1     -0.000000      0.000000      0.000000
     2   0 2 0     -3.263906      0.000000     13.722085
     2   0 1 1     -0.000000      0.000000      0.000000

 CCSD total energy / hartree       =       -76.069390098813713
 Total times  cpu:        8.8s     wall:       12.1s
