============================== echo of input deck ==============================
 echo
 start H2O
 title "H2O"

 memory total 24 gb

 geometry units bohr
 symmetry c1
        O  0.00000000  0.00000000  0.00000000
        H  0.00000000  3.871245  0.00000000
        H  1.72558000 -0.64860000  0.00000000
 end

 basis spherical
   * library cc-pVDZ
 end

 mcscf
   active  8
   actelec 10
   multiplicity 1
   maxiter 40
   vectors input h2o.mos
   vectors output h2o.mos
 end

 task mcscf

 scf
   vectors input h2o.mos
   vectors output h2o-trash.mos
   noscf
 end

 tce
   2eorb
   2emet 13
   ccsd
   maxiter 300
 end

# set tce:print_integrals T
# set tce:qorb 8
# set tce:qela 5
# set tce:qelb 5

 set tce:qducc T
 set tce:nactv 3
 set tce:nonhf T
 set tce:ducc_model 6

 set tce:printtol 0.02

 task tce
================================================================================

 Output coordinates in a.u. (scale by  1.000000000 to convert to a.u.)

  No.       Tag          Charge          X              Y              Z
 ---- ---------------- ---------- -------------- -------------- --------------
    1 O                    8.0000    -0.17255800    -0.32226450     0.00000000
    2 H                    1.0000    -0.17255800     3.54898050     0.00000000
    3 H                    1.0000     1.55302200    -0.97086450     0.00000000

 Vector    1  Occ=1.999994D+00  E=-2.061028D+01  Symmetry=a

 Vector    2  Occ=1.998457D+00  E=-1.297551D+00  Symmetry=a

 Vector    3  Occ=1.985782D+00  E=-6.597293D-01  Symmetry=a

 Vector    4  Occ=1.974318D+00  E=-5.353204D-01  Symmetry=a

 Vector    5  Occ=1.554639D+00  E=-4.110620D-01  Symmetry=a

 Vector    6  Occ=4.462175D-01  E=-1.503186D-01  Symmetry=a

 Vector    7  Occ=2.676953D-02  E=-2.595169D-02  Symmetry=a

 Vector    8  Occ=1.382375D-02  E=-1.166953D-02  Symmetry=a

 Vector    9  Occ=0.000000D+00  E= 4.507472D-01  Symmetry=a

 Vector   10  Occ=0.000000D+00  E= 6.595783D-01  Symmetry=a

 Vector   11  Occ=0.000000D+00  E= 1.089113D+00  Symmetry=a

 Vector   12  Occ=0.000000D+00  E= 1.151652D+00  Symmetry=a

 Vector   13  Occ=0.000000D+00  E= 1.458050D+00  Symmetry=a

 Vector   14  Occ=0.000000D+00  E= 1.484570D+00  Symmetry=a

 Vector   15  Occ=0.000000D+00  E= 1.526145D+00  Symmetry=a

 Vector   16  Occ=0.000000D+00  E= 1.563770D+00  Symmetry=a

 Vector   17  Occ=0.000000D+00  E= 1.597167D+00  Symmetry=a

 Vector   18  Occ=0.000000D+00  E= 1.921867D+00  Symmetry=a

         Total SCF energy =    -75.771735948371

 Vector    2  Occ=2.000000D+00  E=-1.297551D+00

 Vector    3  Occ=2.000000D+00  E=-6.597293D-01

 Vector    4  Occ=2.000000D+00  E=-5.353204D-01

 Vector    5  Occ=2.000000D+00  E=-4.110620D-01

 Vector    6  Occ=0.000000D+00  E=-1.503186D-01

 Vector    7  Occ=0.000000D+00  E=-2.595169D-02

 Vector    8  Occ=0.000000D+00  E=-1.166953D-02

 Vector    9  Occ=0.000000D+00  E= 4.507472D-01

 Vector   10  Occ=0.000000D+00  E= 6.595783D-01

 Vector   11  Occ=0.000000D+00  E= 1.089113D+00

 Vector   12  Occ=0.000000D+00  E= 1.151652D+00

 Vector   13  Occ=0.000000D+00  E= 1.458050D+00

 Vector   14  Occ=0.000000D+00  E= 1.484570D+00

 Vector   15  Occ=0.000000D+00  E= 1.526145D+00

       Multipole analysis of the density wrt the origin
       ------------------------------------------------

     L   x y z        total         open         nuclear
     -   - - -        -----         ----         -------
     0   0 0 0     -0.000000      0.000000     10.000000

     1   1 0 0      0.607349      0.000000     -0.000000
     1   0 1 0      0.036164      0.000000      0.000000
     1   0 0 1     -0.000000      0.000000      0.000000

     2   2 0 0     -4.413190      0.000000      2.679864
     2   1 1 0     -0.658037      0.000000     -1.675304
     2   1 0 1     -0.000000      0.000000      0.000000
     2   0 2 0     -3.307309      0.000000     14.368676
     2   0 1 1     -0.000000      0.000000      0.000000

 CCSD total energy / hartree       =       -76.065616147029772
 Total times  cpu:        8.6s     wall:       12.0s
