============================== echo of input deck ==============================
 echo
 start H2O
 title "H2O"

 memory total 24 gb

 geometry units bohr
 symmetry c1
        O  0.00000000  0.00000000  0.00000000
        H  0.00000000  4.1477625  0.00000000
        H  1.72558000 -0.64860000  0.00000000
 end

 basis spherical
   * library cc-pVDZ
 end

 mcscf
   active  8
   actelec 10
   multiplicity 1
   maxiter 40
   vectors input h2o.mos
   vectors output h2o.mos
 end

 task mcscf

 scf
   vectors input h2o.mos
   vectors output h2o-trash.mos
   noscf
 end

 tce
   2eorb
   2emet 13
   ccsd
   maxiter 300
 end

# set tce:print_integrals T
# set tce:qorb 8
# set tce:qela 5
# set tce:qelb 5

 set tce:qducc T
 set tce:nactv 3
 set tce:nonhf T
 set tce:ducc_model 6

 set tce:printtol 0.02

 task tce
================================================================================

 Output coordinates in a.u. (scale by  1.000000000 to convert to a.u.)

  No.       Tag          Charge          X              Y              Z
 ---- ---------------- ---------- -------------- -------------- --------------
    1 O                    8.0000    -0.17255800    -0.34991625     0.00000000
    2 H                    1.0000    -0.17255800     3.79784625     0.00000000
    3 H                    1.0000     1.55302200    -0.99851625     0.00000000

 Vector    1  Occ=1.999994D+00  E=-2.061153D+01  Symmetry=a

 Vector    2  Occ=1.998598D+00  E=-1.299002D+00  Symmetry=a

 Vector    3  Occ=1.986212D+00  E=-6.611962D-01  Symmetry=a

 Vector    4  Occ=1.974463D+00  E=-5.372631D-01  Symmetry=a

 Vector    5  Occ=1.457859D+00  E=-3.893387D-01  Symmetry=a

 Vector    6  Occ=5.427254D-01  E=-1.726835D-01  Symmetry=a

 Vector    7  Occ=2.666346D-02  E=-2.590562D-02  Symmetry=a

 Vector    8  Occ=1.348459D-02  E=-1.155155D-02  Symmetry=a

 Vector    9  Occ=0.000000D+00  E= 4.438147D-01  Symmetry=a

 Vector   10  Occ=0.000000D+00  E= 6.706123D-01  Symmetry=a

 Vector   11  Occ=0.000000D+00  E= 1.094277D+00  Symmetry=a

 Vector   12  Occ=0.000000D+00  E= 1.147233D+00  Symmetry=a

 Vector   13  Occ=0.000000D+00  E= 1.469987D+00  Symmetry=a

 Vector   14  Occ=0.000000D+00  E= 1.493627D+00  Symmetry=a

 Vector   15  Occ=0.000000D+00  E= 1.519849D+00  Symmetry=a

 Vector   16  Occ=0.000000D+00  E= 1.551656D+00  Symmetry=a

 Vector   17  Occ=0.000000D+00  E= 1.600175D+00  Symmetry=a

 Vector   18  Occ=0.000000D+00  E= 1.829948D+00  Symmetry=a

         Total SCF energy =    -75.745788421284

 Vector    2  Occ=2.000000D+00  E=-1.299002D+00

 Vector    3  Occ=2.000000D+00  E=-6.611962D-01

 Vector    4  Occ=2.000000D+00  E=-5.372631D-01

 Vector    5  Occ=2.000000D+00  E=-3.893387D-01

 Vector    6  Occ=0.000000D+00  E=-1.726835D-01

 Vector    7  Occ=0.000000D+00  E=-2.590562D-02

 Vector    8  Occ=0.000000D+00  E=-1.155155D-02

 Vector    9  Occ=0.000000D+00  E= 4.438147D-01

 Vector   10  Occ=0.000000D+00  E= 6.706123D-01

 Vector   11  Occ=0.000000D+00  E= 1.094277D+00

 Vector   12  Occ=0.000000D+00  E= 1.147233D+00

 Vector   13  Occ=0.000000D+00  E= 1.469987D+00

 Vector   14  Occ=0.000000D+00  E= 1.493627D+00

 Vector   15  Occ=0.000000D+00  E= 1.519849D+00

       Multipole analysis of the density wrt the origin
       ------------------------------------------------

     L   x y z        total         open         nuclear
     -   - - -        -----         ----         -------
     0   0 0 0     -0.000000      0.000000     10.000000

     1   1 0 0      0.611058      0.000000     -0.000000
     1   0 1 0     -0.026624      0.000000      0.000000
     1   0 0 1     -0.000000      0.000000      0.000000

     2   2 0 0     -4.409739      0.000000      2.679864
     2   1 1 0     -0.633000      0.000000     -1.723020
     2   1 0 1     -0.000000      0.000000      0.000000
     2   0 2 0     -3.430635      0.000000     16.400202
     2   0 1 1     -0.000000      0.000000      0.000000

 CCSD total energy / hartree       =       -76.056572175245151
 Total times  cpu:        8.5s     wall:       11.9s
