============================== echo of input deck ==============================
 echo
 start H2O
 title "H2O"

 memory total 24 gb

 geometry units bohr
 symmetry c1
        O  0.00000000  0.00000000  0.00000000
        H  0.00000000  4.239935  0.00000000
        H  1.72558000 -0.64860000  0.00000000
 end

 basis spherical
   * library cc-pVDZ
 end

 mcscf
   active  8
   actelec 10
   multiplicity 1
   maxiter 40
   vectors input h2o.mos
   vectors output h2o.mos
 end

 task mcscf

 scf
   vectors input h2o.mos
   vectors output h2o-trash.mos
   noscf
 end

 tce
   2eorb
   2emet 13
   ccsd
   maxiter 300
 end

# set tce:print_integrals T
# set tce:qorb 8
# set tce:qela 5
# set tce:qelb 5

 set tce:qducc T
 set tce:nactv 3
 set tce:nonhf T
 set tce:ducc_model 6

 set tce:printtol 0.02

 task tce
================================================================================

 Output coordinates in a.u. (scale by  1.000000000 to convert to a.u.)

  No.       Tag          Charge          X              Y              Z
 ---- ---------------- ---------- -------------- -------------- --------------
    1 O                    8.0000    -0.17255800    -0.35913350     0.00000000
    2 H                    1.0000    -0.17255800     3.88080150     0.00000000
    3 H                    1.0000     1.55302200    -1.00773350     0.00000000

 Vector    1  Occ=1.999994D+00  E=-2.061170D+01  Symmetry=a

 Vector    2  Occ=1.998637D+00  E=-1.299302D+00  Symmetry=a

 Vector    3  Occ=1.986324D+00  E=-6.615041D-01  Symmetry=a

 Vector    4  Occ=1.974503D+00  E=-5.376710D-01  Symmetry=a

 Vector    5  Occ=1.427740D+00  E=-3.828908D-01  Symmetry=a

 Vector    6  Occ=5.727715D-01  E=-1.794236D-01  Symmetry=a

 Vector    7  Occ=2.663308D-02  E=-2.589044D-02  Symmetry=a

 Vector    8  Occ=1.339712D-02  E=-1.151934D-02  Symmetry=a

 Vector    9  Occ=0.000000D+00  E= 4.416859D-01  Symmetry=a

 Vector   10  Occ=0.000000D+00  E= 6.725695D-01  Symmetry=a

 Vector   11  Occ=0.000000D+00  E= 1.095850D+00  Symmetry=a

 Vector   12  Occ=0.000000D+00  E= 1.149009D+00  Symmetry=a

 Vector   13  Occ=0.000000D+00  E= 1.473596D+00  Symmetry=a

 Vector   14  Occ=0.000000D+00  E= 1.496251D+00  Symmetry=a

 Vector   15  Occ=0.000000D+00  E= 1.518363D+00  Symmetry=a

 Vector   16  Occ=0.000000D+00  E= 1.548386D+00  Symmetry=a

 Vector   17  Occ=0.000000D+00  E= 1.601536D+00  Symmetry=a

 Vector   18  Occ=0.000000D+00  E= 1.801713D+00  Symmetry=a

         Total SCF energy =    -75.737824309331

 Vector    2  Occ=2.000000D+00  E=-1.299302D+00

 Vector    3  Occ=2.000000D+00  E=-6.615041D-01

 Vector    4  Occ=2.000000D+00  E=-5.376710D-01

 Vector    5  Occ=2.000000D+00  E=-3.828908D-01

 Vector    6  Occ=0.000000D+00  E=-1.794236D-01

 Vector    7  Occ=0.000000D+00  E=-2.589044D-02

 Vector    8  Occ=0.000000D+00  E=-1.151934D-02

 Vector    9  Occ=0.000000D+00  E= 4.416859D-01

 Vector   10  Occ=0.000000D+00  E= 6.725695D-01

 Vector   11  Occ=0.000000D+00  E= 1.095850D+00

 Vector   12  Occ=0.000000D+00  E= 1.149009D+00

 Vector   13  Occ=0.000000D+00  E= 1.473596D+00

 Vector   14  Occ=0.000000D+00  E= 1.496251D+00

 Vector   15  Occ=0.000000D+00  E= 1.518363D+00

       Multipole analysis of the density wrt the origin
       ------------------------------------------------

     L   x y z        total         open         nuclear
     -   - - -        -----         ----         -------
     0   0 0 0     -0.000000      0.000000     10.000000

     1   1 0 0      0.612210      0.000000     -0.000000
     1   0 1 0     -0.044375      0.000000     -0.000000
     1   0 0 1     -0.000000      0.000000      0.000000

     2   2 0 0     -4.407434      0.000000      2.679864
     2   1 1 0     -0.626240      0.000000     -1.738925
     2   1 0 1     -0.000000      0.000000      0.000000
     2   0 2 0     -3.469407      0.000000     17.107962
     2   0 1 1     -0.000000      0.000000      0.000000

 CCSD total energy / hartree       =       -76.054205791225726
 Total times  cpu:        8.8s     wall:       11.9s
