============================== echo of input deck ==============================
 echo
 start H2O
 title "H2O"

 memory total 24 gb

 geometry units bohr
 symmetry c1
        O  0.00000000  0.00000000  0.00000000
        H  0.00000000  4.3321075  0.00000000
        H  1.72558000 -0.64860000  0.00000000
 end

 basis spherical
   * library cc-pVDZ
 end

 mcscf
   active  8
   actelec 10
   multiplicity 1
   maxiter 40
   vectors input h2o.mos
   vectors output h2o.mos
 end

 task mcscf

 scf
   vectors input h2o.mos
   vectors output h2o-trash.mos
   noscf
 end

 tce
   2eorb
   2emet 13
   ccsd
   maxiter 300
 end

# set tce:print_integrals T
# set tce:qorb 8
# set tce:qela 5
# set tce:qelb 5

 set tce:qducc T
 set tce:nactv 3
 set tce:nonhf T
 set tce:ducc_model 6

 set tce:printtol 0.02

 task tce
================================================================================

 Output coordinates in a.u. (scale by  1.000000000 to convert to a.u.)

  No.       Tag          Charge          X              Y              Z
 ---- ---------------- ---------- -------------- -------------- --------------
    1 O                    8.0000    -0.17255800    -0.36835075     0.00000000
    2 H                    1.0000    -0.17255800     3.96375675     0.00000000
    3 H                    1.0000     1.55302200    -1.01695075     0.00000000

 Vector    1  Occ=1.999994D+00  E=-2.061176D+01  Symmetry=a

 Vector    2  Occ=1.998671D+00  E=-1.299520D+00  Symmetry=a

 Vector    3  Occ=1.986422D+00  E=-6.617283D-01  Symmetry=a

 Vector    4  Occ=1.974540D+00  E=-5.379761D-01  Symmetry=a

 Vector    5  Occ=1.398928D+00  E=-3.768606D-01  Symmetry=a

 Vector    6  Occ=6.015189D-01  E=-1.857617D-01  Symmetry=a

 Vector    7  Occ=2.660548D-02  E=-2.587532D-02  Symmetry=a

 Vector    8  Occ=1.332067D-02  E=-1.149153D-02  Symmetry=a

 Vector    9  Occ=0.000000D+00  E= 4.398404D-01  Symmetry=a

 Vector   10  Occ=0.000000D+00  E= 6.737360D-01  Symmetry=a

 Vector   11  Occ=0.000000D+00  E= 1.097318D+00  Symmetry=a

 Vector   12  Occ=0.000000D+00  E= 1.151856D+00  Symmetry=a

 Vector   13  Occ=0.000000D+00  E= 1.476998D+00  Symmetry=a

 Vector   14  Occ=0.000000D+00  E= 1.498705D+00  Symmetry=a

 Vector   15  Occ=0.000000D+00  E= 1.517144D+00  Symmetry=a

 Vector   16  Occ=0.000000D+00  E= 1.545478D+00  Symmetry=a

 Vector   17  Occ=0.000000D+00  E= 1.602808D+00  Symmetry=a

 Vector   18  Occ=0.000000D+00  E= 1.775298D+00  Symmetry=a

         Total SCF energy =    -75.730191004179

 Vector    2  Occ=2.000000D+00  E=-1.299520D+00

 Vector    3  Occ=2.000000D+00  E=-6.617283D-01

 Vector    4  Occ=2.000000D+00  E=-5.379761D-01

 Vector    5  Occ=2.000000D+00  E=-3.768606D-01

 Vector    6  Occ=0.000000D+00  E=-1.857617D-01

 Vector    7  Occ=0.000000D+00  E=-2.587532D-02

 Vector    8  Occ=0.000000D+00  E=-1.149153D-02

 Vector    9  Occ=0.000000D+00  E= 4.398404D-01

 Vector   10  Occ=0.000000D+00  E= 6.737360D-01

 Vector   11  Occ=0.000000D+00  E= 1.097318D+00

 Vector   12  Occ=0.000000D+00  E= 1.151856D+00

 Vector   13  Occ=0.000000D+00  E= 1.476998D+00

 Vector   14  Occ=0.000000D+00  E= 1.498705D+00

 Vector   15  Occ=0.000000D+00  E= 1.517144D+00

       Multipole analysis of the density wrt the origin
       ------------------------------------------------

     L   x y z        total         open         nuclear
     -   - - -        -----         ----         -------
     0   0 0 0     -0.000000      0.000000     10.000000

     1   1 0 0      0.613321      0.000000     -0.000000
     1   0 1 0     -0.060697      0.000000      0.000000
     1   0 0 1     -0.000000      0.000000      0.000000

     2   2 0 0     -4.404751      0.000000      2.679864
     2   1 1 0     -0.620272      0.000000     -1.754830
     2   1 0 1     -0.000000      0.000000      0.000000
     2   0 2 0     -3.507152      0.000000     17.831015
     2   0 1 1     -0.000000      0.000000      0.000000

 CCSD total energy / hartree       =       -76.052110773813979
 Total times  cpu:        8.4s     wall:       11.7s
