============================== echo of input deck ==============================
 echo
 start H2O
 title "H2O"

 memory total 24 gb

 geometry units bohr
 symmetry c1
        O  0.00000000  0.00000000  0.00000000
        H  0.00000000  5.16166  0.00000000
        H  1.72558000 -0.64860000  0.00000000
 end

 basis spherical
   * library cc-pVDZ
 end

 mcscf
   active  8
   actelec 10
   multiplicity 1
   maxiter 40
   vectors input h2o.mos
   vectors output h2o.mos
 end

 task mcscf

 scf
   vectors input h2o.mos
   vectors output h2o-trash.mos
   noscf
 end

 tce
   2eorb
   2emet 13
   ccsd
   maxiter 300
 end

# set tce:print_integrals T
# set tce:qorb 8
# set tce:qela 5
# set tce:qelb 5

 set tce:qducc T
 set tce:nactv 3
 set tce:nonhf T
 set tce:ducc_model 6

 set tce:printtol 0.02

 task tce
================================================================================

 Output coordinates in a.u. (scale by  1.000000000 to convert to a.u.)

  No.       Tag          Charge          X              Y              Z
 ---- ---------------- ---------- -------------- -------------- --------------
    1 O                    8.0000    -0.17255800    -0.45130600     0.00000000
    2 H                    1.0000    -0.17255800     4.71035400     0.00000000
    3 H                    1.0000     1.55302200    -1.09990600     0.00000000

 Vector    1  Occ=1.999995D+00  E=-2.061051D+01  Symmetry=a

 Vector    2  Occ=1.998847D+00  E=-1.299666D+00  Symmetry=a

 Vector    3  Occ=1.986882D+00  E=-6.619044D-01  Symmetry=a

 Vector    4  Occ=1.974724D+00  E=-5.384002D-01  Symmetry=a

 Vector    5  Occ=1.202516D+00  E=-3.397859D-01  Symmetry=a

 Vector    6  Occ=7.976087D-01  E=-2.252508D-01  Symmetry=a

 Vector    7  Occ=2.646404D-02  E=-2.577851D-02  Symmetry=a

 Vector    8  Occ=1.296433D-02  E=-1.134929D-02  Symmetry=a

 Vector    9  Occ=0.000000D+00  E= 4.287630D-01  Symmetry=a

 Vector   10  Occ=0.000000D+00  E= 6.641979D-01  Symmetry=a

 Vector   11  Occ=0.000000D+00  E= 1.105704D+00  Symmetry=a

 Vector   12  Occ=0.000000D+00  E= 1.187500D+00  Symmetry=a

 Vector   13  Occ=0.000000D+00  E= 1.499383D+00  Symmetry=a

 Vector   14  Occ=0.000000D+00  E= 1.511147D+00  Symmetry=a

 Vector   15  Occ=0.000000D+00  E= 1.513207D+00  Symmetry=a

 Vector   16  Occ=0.000000D+00  E= 1.531963D+00  Symmetry=a

 Vector   17  Occ=0.000000D+00  E= 1.577203D+00  Symmetry=a

 Vector   18  Occ=0.000000D+00  E= 1.654964D+00  Symmetry=a

         Total SCF energy =    -75.674934842046

 Vector    2  Occ=2.000000D+00  E=-1.299666D+00

 Vector    3  Occ=2.000000D+00  E=-6.619044D-01

 Vector    4  Occ=2.000000D+00  E=-5.384002D-01

 Vector    5  Occ=2.000000D+00  E=-3.397859D-01

 Vector    6  Occ=0.000000D+00  E=-2.252508D-01

 Vector    7  Occ=0.000000D+00  E=-2.577851D-02

 Vector    8  Occ=0.000000D+00  E=-1.134929D-02

 Vector    9  Occ=0.000000D+00  E= 4.287630D-01

 Vector   10  Occ=0.000000D+00  E= 6.641979D-01

 Vector   11  Occ=0.000000D+00  E= 1.105704D+00

 Vector   12  Occ=0.000000D+00  E= 1.187500D+00

 Vector   13  Occ=0.000000D+00  E= 1.499383D+00

 Vector   14  Occ=0.000000D+00  E= 1.511147D+00

 Vector   15  Occ=0.000000D+00  E= 1.513207D+00

       Multipole analysis of the density wrt the origin
       ------------------------------------------------

     L   x y z        total         open         nuclear
     -   - - -        -----         ----         -------
     0   0 0 0     -0.000000      0.000000     10.000000

     1   1 0 0      0.621294      0.000000     -0.000000
     1   0 1 0     -0.159752      0.000000     -0.000000
     1   0 0 1     -0.000000      0.000000      0.000000

     2   2 0 0     -4.375237      0.000000      2.679864
     2   1 1 0     -0.597827      0.000000     -1.897976
     2   1 0 1      0.000000      0.000000      0.000000
     2   0 2 0     -3.818071      0.000000     25.026645
     2   0 1 1     -0.000000      0.000000      0.000000

 CCSD total energy / hartree       =       -76.041395471431272
 Total times  cpu:        7.2s     wall:        9.7s
