============================== echo of input deck ==============================
 echo
 start H2O
 title "H2O"

 memory total 24 gb

 geometry units bohr
 symmetry c1
        O  0.00000000  0.00000000  0.00000000
        H  0.00000000  5.2538325  0.00000000
        H  1.72558000 -0.64860000  0.00000000
 end

 basis spherical
   * library cc-pVDZ
 end

 mcscf
   active  8
   actelec 10
   multiplicity 1
   maxiter 40
   vectors input h2o.mos
   vectors output h2o.mos
 end

 task mcscf

 scf
   vectors input h2o.mos
   vectors output h2o-trash.mos
   noscf
 end

 tce
   2eorb
   2emet 13
   ccsd
   maxiter 300
 end

# set tce:print_integrals T
# set tce:qorb 8
# set tce:qela 5
# set tce:qelb 5

 set tce:qducc T
 set tce:nactv 3
 set tce:nonhf T
 set tce:ducc_model 6

 set tce:printtol 0.02

 task tce
================================================================================

 Output coordinates in a.u. (scale by  1.000000000 to convert to a.u.)

  No.       Tag          Charge          X              Y              Z
 ---- ---------------- ---------- -------------- -------------- --------------
    1 O                    8.0000    -0.17255800    -0.46052325     0.00000000
    2 H                    1.0000    -0.17255800     4.79330925     0.00000000
    3 H                    1.0000     1.55302200    -1.10912325     0.00000000

 Vector    1  Occ=1.999995D+00  E=-2.061033D+01  Symmetry=a

 Vector    2  Occ=1.998856D+00  E=-1.299601D+00  Symmetry=a

 Vector    3  Occ=1.986904D+00  E=-6.618414D-01  Symmetry=a

 Vector    4  Occ=1.974733D+00  E=-5.383394D-01  Symmetry=a

 Vector    5  Occ=1.187132D+00  E=-3.372911D-01  Symmetry=a

 Vector    6  Occ=8.129762D-01  E=-2.279351D-01  Symmetry=a

 Vector    7  Occ=2.645676D-02  E=-2.577211D-02  Symmetry=a

 Vector    8  Occ=1.294739D-02  E=-1.134144D-02  Symmetry=a

 Vector    9  Occ=0.000000D+00  E= 4.280454D-01  Symmetry=a

 Vector   10  Occ=0.000000D+00  E= 6.623957D-01  Symmetry=a

 Vector   11  Occ=0.000000D+00  E= 1.106018D+00  Symmetry=a

 Vector   12  Occ=0.000000D+00  E= 1.189654D+00  Symmetry=a

 Vector   13  Occ=0.000000D+00  E= 1.501157D+00  Symmetry=a

 Vector   14  Occ=0.000000D+00  E= 1.511629D+00  Symmetry=a

 Vector   15  Occ=0.000000D+00  E= 1.513121D+00  Symmetry=a

 Vector   16  Occ=0.000000D+00  E= 1.531468D+00  Symmetry=a

 Vector   17  Occ=0.000000D+00  E= 1.570700D+00  Symmetry=a

 Vector   18  Occ=0.000000D+00  E= 1.652953D+00  Symmetry=a

         Total SCF energy =    -75.670123233345

 Vector    2  Occ=2.000000D+00  E=-1.299601D+00

 Vector    3  Occ=2.000000D+00  E=-6.618414D-01

 Vector    4  Occ=2.000000D+00  E=-5.383394D-01

 Vector    5  Occ=2.000000D+00  E=-3.372911D-01

 Vector    6  Occ=0.000000D+00  E=-2.279351D-01

 Vector    7  Occ=0.000000D+00  E=-2.577211D-02

 Vector    8  Occ=0.000000D+00  E=-1.134144D-02

 Vector    9  Occ=0.000000D+00  E= 4.280454D-01

 Vector   10  Occ=0.000000D+00  E= 6.623957D-01

 Vector   11  Occ=0.000000D+00  E= 1.106018D+00

 Vector   12  Occ=0.000000D+00  E= 1.189654D+00

 Vector   13  Occ=0.000000D+00  E= 1.501157D+00

 Vector   14  Occ=0.000000D+00  E= 1.511629D+00

 Vector   15  Occ=0.000000D+00  E= 1.513121D+00

       Multipole analysis of the density wrt the origin
       ------------------------------------------------

     L   x y z        total         open         nuclear
     -   - - -        -----         ----         -------
     0   0 0 0     -0.000000      0.000000     10.000000

     1   1 0 0      0.621961      0.000000     -0.000000
     1   0 1 0     -0.166880      0.000000      0.000000
     1   0 0 1     -0.000000      0.000000      0.000000

     2   2 0 0     -4.372046      0.000000      2.679864
     2   1 1 0     -0.598148      0.000000     -1.913881
     2   1 0 1      0.000000      0.000000      0.000000
     2   0 2 0     -3.849926      0.000000     25.902621
     2   0 1 1     -0.000000      0.000000      0.000000

 CCSD total energy / hartree       =       -76.040777287457090
 Total times  cpu:        7.3s     wall:        9.7s
