============================== echo of input deck ==============================
 echo
 start Li2
 title "Li2"

 memory total 24 gb

 geometry units bohr
 symmetry c1
        Li  0.00000000  0.00000000  0.00000000
        Li  0.00000000  12.6  0.00000000
 end

 basis
   * library cc-pVTZ
 end

 mcscf
   active  4
   actelec 6
   multiplicity 1
   maxiter 40
   vectors input Li2.mos
   vectors output Li2.mos
 end

 task mcscf

 scf
   vectors input Li2.mos
   vectors output Li2-12.6.mos
   noscf
 end

 tce
   2eorb
   2emet 13
   ccsd
   maxiter 300
   lshift 0.3
 end

# set tce:print_integrals T
# set tce:qorb 10
# set tce:qela 1
# set tce:qelb 1

 set tce:qducc T
 set tce:nactv 1
 set tce:nonhf T
 set tce:ducc_model 6

 set tce:printtol 0.02

 task tce
================================================================================

 Output coordinates in a.u. (scale by  1.000000000 to convert to a.u.)

  No.       Tag          Charge          X              Y              Z
 ---- ---------------- ---------- -------------- -------------- --------------
    1 Li                   3.0000     0.00000000    -6.30000000     0.00000000
    2 Li                   3.0000     0.00000000     6.30000000     0.00000000

 Vector    1  Occ=2.000000D+00  E=-2.477964D+00  Symmetry=a

 Vector    2  Occ=2.000000D+00  E=-2.477964D+00  Symmetry=a

 Vector    3  Occ=1.117124D+00  E=-1.076271D-01  Symmetry=a

 Vector    4  Occ=8.828763D-01  E=-8.853661D-02  Symmetry=a

 Vector    5  Occ=0.000000D+00  E= 2.752811D-02  Symmetry=a

 Vector    6  Occ=0.000000D+00  E= 2.752811D-02  Symmetry=a

 Vector    7  Occ=0.000000D+00  E= 3.002304D-02  Symmetry=a

 Vector    8  Occ=0.000000D+00  E= 3.887893D-02  Symmetry=a

 Vector    9  Occ=0.000000D+00  E= 3.887893D-02  Symmetry=a

 Vector   10  Occ=0.000000D+00  E= 4.631667D-02  Symmetry=a

 Vector   11  Occ=0.000000D+00  E= 9.921327D-02  Symmetry=a

 Vector   12  Occ=0.000000D+00  E= 1.151887D-01  Symmetry=a

 Vector   13  Occ=0.000000D+00  E= 1.183861D-01  Symmetry=a

 Vector   14  Occ=0.000000D+00  E= 1.183861D-01  Symmetry=a

         Total SCF energy =    -14.796615031138

 Vector    2  Occ=2.000000D+00  E=-2.477964D+00

 Vector    3  Occ=2.000000D+00  E=-1.076271D-01

 Vector    4  Occ=0.000000D+00  E=-8.853661D-02

 Vector    5  Occ=0.000000D+00  E= 2.752811D-02

 Vector    6  Occ=0.000000D+00  E= 2.752811D-02

 Vector    7  Occ=0.000000D+00  E= 3.002304D-02

 Vector    8  Occ=0.000000D+00  E= 3.887893D-02

 Vector    9  Occ=0.000000D+00  E= 3.887893D-02

 Vector   10  Occ=0.000000D+00  E= 4.631667D-02

 Vector   11  Occ=0.000000D+00  E= 9.921327D-02

 Vector   12  Occ=0.000000D+00  E= 1.151887D-01

 Vector   13  Occ=0.000000D+00  E= 1.183861D-01

 Vector   14  Occ=0.000000D+00  E= 1.183861D-01

 Vector   15  Occ=0.000000D+00  E= 1.222107D-01

 Vector   16  Occ=0.000000D+00  E= 1.222107D-01

 Vector   17  Occ=0.000000D+00  E= 1.238067D-01

 Vector   18  Occ=0.000000D+00  E= 1.301013D-01

 Vector   19  Occ=0.000000D+00  E= 2.094926D-01

 Vector   20  Occ=0.000000D+00  E= 2.196965D-01

 Vector   21  Occ=0.000000D+00  E= 2.196965D-01

 Vector   22  Occ=0.000000D+00  E= 2.271663D-01

 Vector   23  Occ=0.000000D+00  E= 2.271663D-01

 Vector   24  Occ=0.000000D+00  E= 2.292865D-01

 Vector   25  Occ=0.000000D+00  E= 2.292865D-01

 Vector   26  Occ=0.000000D+00  E= 2.408137D-01

 Vector   27  Occ=0.000000D+00  E= 2.408137D-01

 Vector   28  Occ=0.000000D+00  E= 2.786042D-01

 Vector   29  Occ=0.000000D+00  E= 3.566844D-01

 Vector   30  Occ=0.000000D+00  E= 3.633045D-01

 Vector   31  Occ=0.000000D+00  E= 3.633045D-01

 Vector   32  Occ=0.000000D+00  E= 3.694118D-01

 Vector   33  Occ=0.000000D+00  E= 3.694118D-01

 Vector   34  Occ=0.000000D+00  E= 3.839189D-01

 Vector   35  Occ=0.000000D+00  E= 4.027200D-01

 Vector   36  Occ=0.000000D+00  E= 4.234839D-01

 Vector   37  Occ=0.000000D+00  E= 7.167897D-01

       Multipole analysis of the density wrt the origin
       ------------------------------------------------

     L   x y z        total         open         nuclear
     -   - - -        -----         ----         -------
     0   0 0 0     -0.000000      0.000000      6.000000

     1   1 0 0     -0.000000      0.000000      0.000000
     1   0 1 0     -0.000000      0.000000      0.000000
     1   0 0 1      0.000000      0.000000      0.000000

     2   2 0 0    -12.616959      0.000000      0.000000
     2   1 1 0     -0.000000      0.000000      0.000000
     2   1 0 1      0.000000      0.000000      0.000000
     2   0 2 0     -9.125422      0.000000    238.140000
     2   0 1 1      0.000000      0.000000      0.000000

 CCSD total energy / hartree       =       -14.897449858228658
 Total times  cpu:      499.5s     wall:      502.3s
