============================== echo of input deck ==============================
 echo
 start Li2
 title "Li2"

 memory total 24 gb

 geometry units bohr
 symmetry c1
        Li  0.00000000  0.00000000  0.00000000
        Li  0.00000000  13.0  0.00000000
 end

 basis
   * library cc-pVTZ
 end

 mcscf
   active  4
   actelec 6
   multiplicity 1
   maxiter 40
   vectors input Li2.mos
   vectors output Li2.mos
 end

 task mcscf

 scf
   vectors input Li2.mos
   vectors output Li2-13.0.mos
   noscf
 end

 tce
   2eorb
   2emet 13
   ccsd
   maxiter 300
   lshift 0.3
 end

# set tce:print_integrals T
# set tce:qorb 10
# set tce:qela 1
# set tce:qelb 1

 set tce:qducc T
 set tce:nactv 1
 set tce:nonhf T
 set tce:ducc_model 6

 set tce:printtol 0.02

 task tce
================================================================================

 Output coordinates in a.u. (scale by  1.000000000 to convert to a.u.)

  No.       Tag          Charge          X              Y              Z
 ---- ---------------- ---------- -------------- -------------- --------------
    1 Li                   3.0000     0.00000000    -6.50000000     0.00000000
    2 Li                   3.0000     0.00000000     6.50000000     0.00000000

 Vector    1  Occ=2.000000D+00  E=-2.477899D+00  Symmetry=a

 Vector    2  Occ=2.000000D+00  E=-2.477899D+00  Symmetry=a

 Vector    3  Occ=1.098863D+00  E=-1.061630D-01  Symmetry=a

 Vector    4  Occ=9.011371D-01  E=-9.004262D-02  Symmetry=a

 Vector    5  Occ=0.000000D+00  E= 2.773854D-02  Symmetry=a

 Vector    6  Occ=0.000000D+00  E= 2.773854D-02  Symmetry=a

 Vector    7  Occ=0.000000D+00  E= 2.972291D-02  Symmetry=a

 Vector    8  Occ=0.000000D+00  E= 3.839169D-02  Symmetry=a

 Vector    9  Occ=0.000000D+00  E= 3.839169D-02  Symmetry=a

 Vector   10  Occ=0.000000D+00  E= 4.589102D-02  Symmetry=a

 Vector   11  Occ=0.000000D+00  E= 9.851231D-02  Symmetry=a

 Vector   12  Occ=0.000000D+00  E= 1.139339D-01  Symmetry=a

 Vector   13  Occ=0.000000D+00  E= 1.182279D-01  Symmetry=a

 Vector   14  Occ=0.000000D+00  E= 1.182279D-01  Symmetry=a

         Total SCF energy =    -14.794213020805

 Vector    2  Occ=2.000000D+00  E=-2.477899D+00

 Vector    3  Occ=2.000000D+00  E=-1.061630D-01

 Vector    4  Occ=0.000000D+00  E=-9.004262D-02

 Vector    5  Occ=0.000000D+00  E= 2.773854D-02

 Vector    6  Occ=0.000000D+00  E= 2.773854D-02

 Vector    7  Occ=0.000000D+00  E= 2.972291D-02

 Vector    8  Occ=0.000000D+00  E= 3.839169D-02

 Vector    9  Occ=0.000000D+00  E= 3.839169D-02

 Vector   10  Occ=0.000000D+00  E= 4.589102D-02

 Vector   11  Occ=0.000000D+00  E= 9.851231D-02

 Vector   12  Occ=0.000000D+00  E= 1.139339D-01

 Vector   13  Occ=0.000000D+00  E= 1.182279D-01

 Vector   14  Occ=0.000000D+00  E= 1.182279D-01

 Vector   15  Occ=0.000000D+00  E= 1.221361D-01

 Vector   16  Occ=0.000000D+00  E= 1.221361D-01

 Vector   17  Occ=0.000000D+00  E= 1.266040D-01

 Vector   18  Occ=0.000000D+00  E= 1.294108D-01

 Vector   19  Occ=0.000000D+00  E= 2.107922D-01

 Vector   20  Occ=0.000000D+00  E= 2.217182D-01

 Vector   21  Occ=0.000000D+00  E= 2.217182D-01

 Vector   22  Occ=0.000000D+00  E= 2.274649D-01

 Vector   23  Occ=0.000000D+00  E= 2.274649D-01

 Vector   24  Occ=0.000000D+00  E= 2.289800D-01

 Vector   25  Occ=0.000000D+00  E= 2.289800D-01

 Vector   26  Occ=0.000000D+00  E= 2.381201D-01

 Vector   27  Occ=0.000000D+00  E= 2.381201D-01

 Vector   28  Occ=0.000000D+00  E= 2.727291D-01

 Vector   29  Occ=0.000000D+00  E= 3.583686D-01

 Vector   30  Occ=0.000000D+00  E= 3.638276D-01

 Vector   31  Occ=0.000000D+00  E= 3.638276D-01

 Vector   32  Occ=0.000000D+00  E= 3.688728D-01

 Vector   33  Occ=0.000000D+00  E= 3.688728D-01

 Vector   34  Occ=0.000000D+00  E= 3.805729D-01

 Vector   35  Occ=0.000000D+00  E= 4.038718D-01

 Vector   36  Occ=0.000000D+00  E= 4.202726D-01

 Vector   37  Occ=0.000000D+00  E= 7.163309D-01

       Multipole analysis of the density wrt the origin
       ------------------------------------------------

     L   x y z        total         open         nuclear
     -   - - -        -----         ----         -------
     0   0 0 0     -0.000000      0.000000      6.000000

     1   1 0 0     -0.000000      0.000000      0.000000
     1   0 1 0     -0.000000      0.000000      0.000000
     1   0 0 1      0.000000      0.000000      0.000000

     2   2 0 0    -12.588858      0.000000      0.000000
     2   1 1 0     -0.000000      0.000000      0.000000
     2   1 0 1      0.000000      0.000000      0.000000
     2   0 2 0     -9.466087      0.000000    253.500000
     2   0 1 1      0.000000      0.000000      0.000000

 CCSD total energy / hartree       =       -14.897262726676178
 Total times  cpu:      497.4s     wall:      500.2s
