============================== echo of input deck ==============================
 echo
 start Li2
 title "Li2"

 memory total 24 gb

 geometry units bohr
 symmetry c1
        Li  0.00000000  0.00000000  0.00000000
        Li  0.00000000  4.0  0.00000000
 end

 basis
   * library cc-pVTZ
 end

 mcscf
   active  4
   actelec 6
   multiplicity 1
   maxiter 40
   vectors input Li2.mos
   vectors output Li2.mos
 end

 task mcscf

 scf
   vectors input Li2.mos
   vectors output Li2-4.0.mos
   noscf
 end

 tce
   2eorb
   2emet 13
   ccsd
   maxiter 300
   lshift 0.3
 end

# set tce:print_integrals T
# set tce:qorb 10
# set tce:qela 1
# set tce:qelb 1

 set tce:qducc T
 set tce:nactv 1
 set tce:nonhf T
 set tce:ducc_model 6

 set tce:printtol 0.02

 task tce
================================================================================

 Output coordinates in a.u. (scale by  1.000000000 to convert to a.u.)

  No.       Tag          Charge          X              Y              Z
 ---- ---------------- ---------- -------------- -------------- --------------
    1 Li                   3.0000     0.00000000    -2.00000000     0.00000000
    2 Li                   3.0000     0.00000000     2.00000000     0.00000000

 Vector    1  Occ=1.999996D+00  E=-2.478196D+00  Symmetry=a

 Vector    2  Occ=1.999996D+00  E=-2.474959D+00  Symmetry=a

 Vector    3  Occ=1.936089D+00  E=-1.983993D-01  Symmetry=a

 Vector    4  Occ=6.391846D-02  E=-9.433818D-03  Symmetry=a

 Vector    5  Occ=0.000000D+00  E= 1.820623D-02  Symmetry=a

 Vector    6  Occ=0.000000D+00  E= 1.820623D-02  Symmetry=a

 Vector    7  Occ=0.000000D+00  E= 3.958814D-02  Symmetry=a

 Vector    8  Occ=0.000000D+00  E= 5.649767D-02  Symmetry=a

 Vector    9  Occ=0.000000D+00  E= 5.649767D-02  Symmetry=a

 Vector   10  Occ=0.000000D+00  E= 6.112631D-02  Symmetry=a

 Vector   11  Occ=0.000000D+00  E= 9.150528D-02  Symmetry=a

 Vector   12  Occ=0.000000D+00  E= 9.435263D-02  Symmetry=a

 Vector   13  Occ=0.000000D+00  E= 9.435263D-02  Symmetry=a

 Vector   14  Occ=0.000000D+00  E= 1.261245D-01  Symmetry=a

         Total SCF energy =    -14.852300567879

 Vector    2  Occ=2.000000D+00  E=-2.474959D+00

 Vector    3  Occ=2.000000D+00  E=-1.983993D-01

 Vector    4  Occ=0.000000D+00  E=-9.433818D-03

 Vector    5  Occ=0.000000D+00  E= 1.820623D-02

 Vector    6  Occ=0.000000D+00  E= 1.820623D-02

 Vector    7  Occ=0.000000D+00  E= 3.958814D-02

 Vector    8  Occ=0.000000D+00  E= 5.649767D-02

 Vector    9  Occ=0.000000D+00  E= 5.649767D-02

 Vector   10  Occ=0.000000D+00  E= 6.112631D-02

 Vector   11  Occ=0.000000D+00  E= 9.150528D-02

 Vector   12  Occ=0.000000D+00  E= 9.435263D-02

 Vector   13  Occ=0.000000D+00  E= 9.435263D-02

 Vector   14  Occ=0.000000D+00  E= 1.261245D-01

 Vector   15  Occ=0.000000D+00  E= 1.496913D-01

 Vector   16  Occ=0.000000D+00  E= 1.606993D-01

 Vector   17  Occ=0.000000D+00  E= 1.606993D-01

 Vector   18  Occ=0.000000D+00  E= 2.068824D-01

 Vector   19  Occ=0.000000D+00  E= 2.068824D-01

 Vector   20  Occ=0.000000D+00  E= 2.123326D-01

 Vector   21  Occ=0.000000D+00  E= 2.660334D-01

 Vector   22  Occ=0.000000D+00  E= 2.660334D-01

 Vector   23  Occ=0.000000D+00  E= 2.842559D-01

 Vector   24  Occ=0.000000D+00  E= 2.842559D-01

 Vector   25  Occ=0.000000D+00  E= 3.049935D-01

 Vector   26  Occ=0.000000D+00  E= 3.450622D-01

 Vector   27  Occ=0.000000D+00  E= 3.450622D-01

 Vector   28  Occ=0.000000D+00  E= 3.545177D-01

 Vector   29  Occ=0.000000D+00  E= 3.590942D-01

 Vector   30  Occ=0.000000D+00  E= 3.590942D-01

 Vector   31  Occ=0.000000D+00  E= 3.723553D-01

 Vector   32  Occ=0.000000D+00  E= 4.076812D-01

 Vector   33  Occ=0.000000D+00  E= 4.126226D-01

 Vector   34  Occ=0.000000D+00  E= 4.126226D-01

 Vector   35  Occ=0.000000D+00  E= 5.135929D-01

       Multipole analysis of the density wrt the origin
       ------------------------------------------------

     L   x y z        total         open         nuclear
     -   - - -        -----         ----         -------
     0   0 0 0     -0.000000      0.000000      6.000000

     1   1 0 0      0.000045      0.000000      0.000000
     1   0 1 0     -0.000000      0.000000      0.000000
     1   0 0 1      0.000067      0.000000      0.000000

     2   2 0 0    -11.658927      0.000000      0.000000
     2   1 1 0     -0.000000      0.000000      0.000000
     2   1 0 1     -0.000000      0.000000      0.000000
     2   0 2 0     -5.079923      0.000000     24.000000
     2   0 1 1      0.000000      0.000000      0.000000

 CCSD total energy / hartree       =       -14.924444231799724
 Total times  cpu:      486.4s     wall:      491.4s
