============================== echo of input deck ==============================
 echo
 start Li2
 title "Li2"

 memory total 24 gb

 geometry units bohr
 symmetry c1
        Li  0.00000000  0.00000000  0.00000000
        Li  0.00000000  4.6  0.00000000
 end

 basis
   * library cc-pVTZ
 end

 mcscf
   active  4
   actelec 6
   multiplicity 1
   maxiter 40
   vectors input Li2.mos
   vectors output Li2.mos
 end

 task mcscf

 scf
   vectors input Li2.mos
   vectors output Li2-4.6.mos
   noscf
 end

 tce
   2eorb
   2emet 13
   ccsd
   maxiter 300
   lshift 0.3
 end

# set tce:print_integrals T
# set tce:qorb 10
# set tce:qela 1
# set tce:qelb 1

 set tce:qducc T
 set tce:nactv 1
 set tce:nonhf T
 set tce:ducc_model 6

 set tce:printtol 0.02

 task tce
================================================================================

 Output coordinates in a.u. (scale by  1.000000000 to convert to a.u.)

  No.       Tag          Charge          X              Y              Z
 ---- ---------------- ---------- -------------- -------------- --------------
    1 Li                   3.0000     0.00000000    -2.30000000     0.00000000
    2 Li                   3.0000     0.00000000     2.30000000     0.00000000

 Vector    1  Occ=1.999996D+00  E=-2.453227D+00  Symmetry=a

 Vector    2  Occ=1.999995D+00  E=-2.452355D+00  Symmetry=a

 Vector    3  Occ=1.927620D+00  E=-1.891079D-01  Symmetry=a

 Vector    4  Occ=7.238931D-02  E=-1.150943D-02  Symmetry=a

 Vector    5  Occ=0.000000D+00  E= 2.524578D-02  Symmetry=a

 Vector    6  Occ=0.000000D+00  E= 2.524578D-02  Symmetry=a

 Vector    7  Occ=0.000000D+00  E= 3.932589D-02  Symmetry=a

 Vector    8  Occ=0.000000D+00  E= 4.463129D-02  Symmetry=a

 Vector    9  Occ=0.000000D+00  E= 5.622572D-02  Symmetry=a

 Vector   10  Occ=0.000000D+00  E= 5.622572D-02  Symmetry=a

 Vector   11  Occ=0.000000D+00  E= 9.592991D-02  Symmetry=a

 Vector   12  Occ=0.000000D+00  E= 1.050986D-01  Symmetry=a

 Vector   13  Occ=0.000000D+00  E= 1.050986D-01  Symmetry=a

 Vector   14  Occ=0.000000D+00  E= 1.261109D-01  Symmetry=a

         Total SCF energy =    -14.866975252650

 Vector    2  Occ=2.000000D+00  E=-2.452355D+00

 Vector    3  Occ=2.000000D+00  E=-1.891079D-01

 Vector    4  Occ=0.000000D+00  E=-1.150943D-02

 Vector    5  Occ=0.000000D+00  E= 2.524578D-02

 Vector    6  Occ=0.000000D+00  E= 2.524578D-02

 Vector    7  Occ=0.000000D+00  E= 3.932589D-02

 Vector    8  Occ=0.000000D+00  E= 4.463129D-02

 Vector    9  Occ=0.000000D+00  E= 5.622572D-02

 Vector   10  Occ=0.000000D+00  E= 5.622572D-02

 Vector   11  Occ=0.000000D+00  E= 9.592991D-02

 Vector   12  Occ=0.000000D+00  E= 1.050986D-01

 Vector   13  Occ=0.000000D+00  E= 1.050986D-01

 Vector   14  Occ=0.000000D+00  E= 1.261109D-01

 Vector   15  Occ=0.000000D+00  E= 1.509336D-01

 Vector   16  Occ=0.000000D+00  E= 1.599988D-01

 Vector   17  Occ=0.000000D+00  E= 1.599988D-01

 Vector   18  Occ=0.000000D+00  E= 1.951232D-01

 Vector   19  Occ=0.000000D+00  E= 2.150866D-01

 Vector   20  Occ=0.000000D+00  E= 2.150866D-01

 Vector   21  Occ=0.000000D+00  E= 2.619558D-01

 Vector   22  Occ=0.000000D+00  E= 2.619558D-01

 Vector   23  Occ=0.000000D+00  E= 2.830376D-01

 Vector   24  Occ=0.000000D+00  E= 2.830376D-01

 Vector   25  Occ=0.000000D+00  E= 3.079443D-01

 Vector   26  Occ=0.000000D+00  E= 3.466924D-01

 Vector   27  Occ=0.000000D+00  E= 3.634857D-01

 Vector   28  Occ=0.000000D+00  E= 3.634857D-01

 Vector   29  Occ=0.000000D+00  E= 3.635747D-01

 Vector   30  Occ=0.000000D+00  E= 3.635747D-01

 Vector   31  Occ=0.000000D+00  E= 3.817427D-01

 Vector   32  Occ=0.000000D+00  E= 4.010971D-01

 Vector   33  Occ=0.000000D+00  E= 4.010971D-01

 Vector   34  Occ=0.000000D+00  E= 4.157558D-01

 Vector   35  Occ=0.000000D+00  E= 5.062492D-01

       Multipole analysis of the density wrt the origin
       ------------------------------------------------

     L   x y z        total         open         nuclear
     -   - - -        -----         ----         -------
     0   0 0 0     -0.000000      0.000000      6.000000

     1   1 0 0      0.000001      0.000000      0.000000
     1   0 1 0     -0.000000      0.000000      0.000000
     1   0 0 1      0.000001      0.000000      0.000000

     2   2 0 0    -11.823990      0.000000      0.000000
     2   1 1 0     -0.000000      0.000000      0.000000
     2   1 0 1      0.000000      0.000000      0.000000
     2   0 2 0     -3.889987      0.000000     31.740000
     2   0 1 1      0.000000      0.000000      0.000000

 CCSD total energy / hartree       =       -14.935420943825457
 Total times  cpu:      480.8s     wall:      483.6s
