============================== echo of input deck ==============================
 echo
 start Li2
 title "Li2"

 memory total 24 gb

 geometry units bohr
 symmetry c1
        Li  0.00000000  0.00000000  0.00000000
        Li  0.00000000  5.8  0.00000000
 end

 basis
   * library cc-pVTZ
 end

 mcscf
   active  4
   actelec 6
   multiplicity 1
   maxiter 40
   vectors input Li2.mos
   vectors output Li2.mos
 end

 task mcscf

 scf
   vectors input Li2.mos
   vectors output Li2-5.8.mos
   noscf
 end

 tce
   2eorb
   2emet 13
   ccsd
   maxiter 300
   lshift 0.3
 end

# set tce:print_integrals T
# set tce:qorb 10
# set tce:qela 1
# set tce:qelb 1

 set tce:qducc T
 set tce:nactv 1
 set tce:nonhf T
 set tce:ducc_model 6

 set tce:printtol 0.02

 task tce
================================================================================

 Output coordinates in a.u. (scale by  1.000000000 to convert to a.u.)

  No.       Tag          Charge          X              Y              Z
 ---- ---------------- ---------- -------------- -------------- --------------
    1 Li                   3.0000     0.00000000    -2.90000000     0.00000000
    2 Li                   3.0000     0.00000000     2.90000000     0.00000000

 Vector    1  Occ=1.999996D+00  E=-2.460572D+00  Symmetry=a

 Vector    2  Occ=1.999996D+00  E=-2.460504D+00  Symmetry=a

 Vector    3  Occ=1.872822D+00  E=-1.758305D-01  Symmetry=a

 Vector    4  Occ=1.271860D-01  E=-1.793915D-02  Symmetry=a

 Vector    5  Occ=0.000000D+00  E= 2.653776D-02  Symmetry=a

 Vector    6  Occ=0.000000D+00  E= 2.653776D-02  Symmetry=a

 Vector    7  Occ=0.000000D+00  E= 3.686077D-02  Symmetry=a

 Vector    8  Occ=0.000000D+00  E= 4.532592D-02  Symmetry=a

 Vector    9  Occ=0.000000D+00  E= 5.332565D-02  Symmetry=a

 Vector   10  Occ=0.000000D+00  E= 5.332565D-02  Symmetry=a

 Vector   11  Occ=0.000000D+00  E= 9.816981D-02  Symmetry=a

 Vector   12  Occ=0.000000D+00  E= 1.105690D-01  Symmetry=a

 Vector   13  Occ=0.000000D+00  E= 1.105690D-01  Symmetry=a

 Vector   14  Occ=0.000000D+00  E= 1.192683D-01  Symmetry=a

         Total SCF energy =    -14.868841056275

 Vector    2  Occ=2.000000D+00  E=-2.460504D+00

 Vector    3  Occ=2.000000D+00  E=-1.758305D-01

 Vector    4  Occ=0.000000D+00  E=-1.793915D-02

 Vector    5  Occ=0.000000D+00  E= 2.653776D-02

 Vector    6  Occ=0.000000D+00  E= 2.653776D-02

 Vector    7  Occ=0.000000D+00  E= 3.686077D-02

 Vector    8  Occ=0.000000D+00  E= 4.532592D-02

 Vector    9  Occ=0.000000D+00  E= 5.332565D-02

 Vector   10  Occ=0.000000D+00  E= 5.332565D-02

 Vector   11  Occ=0.000000D+00  E= 9.816981D-02

 Vector   12  Occ=0.000000D+00  E= 1.105690D-01

 Vector   13  Occ=0.000000D+00  E= 1.105690D-01

 Vector   14  Occ=0.000000D+00  E= 1.192683D-01

 Vector   15  Occ=0.000000D+00  E= 1.481916D-01

 Vector   16  Occ=0.000000D+00  E= 1.481916D-01

 Vector   17  Occ=0.000000D+00  E= 1.527557D-01

 Vector   18  Occ=0.000000D+00  E= 1.874375D-01

 Vector   19  Occ=0.000000D+00  E= 2.153051D-01

 Vector   20  Occ=0.000000D+00  E= 2.153051D-01

 Vector   21  Occ=0.000000D+00  E= 2.429393D-01

 Vector   22  Occ=0.000000D+00  E= 2.429393D-01

 Vector   23  Occ=0.000000D+00  E= 2.696221D-01

 Vector   24  Occ=0.000000D+00  E= 2.696221D-01

 Vector   25  Occ=0.000000D+00  E= 2.993095D-01

 Vector   26  Occ=0.000000D+00  E= 3.466538D-01

 Vector   27  Occ=0.000000D+00  E= 3.466538D-01

 Vector   28  Occ=0.000000D+00  E= 3.535703D-01

 Vector   29  Occ=0.000000D+00  E= 3.711284D-01

 Vector   30  Occ=0.000000D+00  E= 3.711284D-01

 Vector   31  Occ=0.000000D+00  E= 3.847448D-01

 Vector   32  Occ=0.000000D+00  E= 3.890730D-01

 Vector   33  Occ=0.000000D+00  E= 3.890730D-01

 Vector   34  Occ=0.000000D+00  E= 4.241013D-01

 Vector   35  Occ=0.000000D+00  E= 4.512607D-01

 Vector   36  Occ=0.000000D+00  E= 5.039798D-01

       Multipole analysis of the density wrt the origin
       ------------------------------------------------

     L   x y z        total         open         nuclear
     -   - - -        -----         ----         -------
     0   0 0 0     -0.000000      0.000000      6.000000

     1   1 0 0      0.000037      0.000000      0.000000
     1   0 1 0      0.000000      0.000000      0.000000
     1   0 0 1      0.000056      0.000000      0.000000

     2   2 0 0    -12.343697      0.000000      0.000000
     2   1 1 0     -0.000000      0.000000      0.000000
     2   1 0 1     -0.000000      0.000000      0.000000
     2   0 2 0     -2.577810      0.000000     50.460000
     2   0 1 1      0.000000      0.000000      0.000000

 CCSD total energy / hartree       =       -14.933253763444769
 Total times  cpu:      479.6s     wall:      482.4s
