============================== echo of input deck ==============================
 echo
 start Li2
 title "Li2"

 memory total 24 gb

 geometry units bohr
 symmetry c1
        Li  0.00000000  0.00000000  0.00000000
        Li  0.00000000  7.3  0.00000000
 end

 basis
   * library cc-pVTZ
 end

 mcscf
   active  4
   actelec 6
   multiplicity 1
   maxiter 40
   vectors input Li2.mos
   vectors output Li2.mos
 end

 task mcscf

 scf
   vectors input Li2.mos
   vectors output Li2-7.3.mos
   noscf
 end

 tce
   2eorb
   2emet 13
   ccsd
   maxiter 300
   lshift 0.3
 end

# set tce:print_integrals T
# set tce:qorb 10
# set tce:qela 1
# set tce:qelb 1

 set tce:qducc T
 set tce:nactv 1
 set tce:nonhf T
 set tce:ducc_model 6

 set tce:printtol 0.02

 task tce
================================================================================

 Output coordinates in a.u. (scale by  1.000000000 to convert to a.u.)

  No.       Tag          Charge          X              Y              Z
 ---- ---------------- ---------- -------------- -------------- --------------
    1 Li                   3.0000     0.00000000    -3.65000000     0.00000000
    2 Li                   3.0000     0.00000000     3.65000000     0.00000000

 Vector    1  Occ=1.999998D+00  E=-2.473169D+00  Symmetry=a

 Vector    2  Occ=1.999998D+00  E=-2.473165D+00  Symmetry=a

 Vector    3  Occ=1.718052D+00  E=-1.574493D-01  Symmetry=a

 Vector    4  Occ=2.819525D-01  E=-3.438312D-02  Symmetry=a

 Vector    5  Occ=0.000000D+00  E= 2.629899D-02  Symmetry=a

 Vector    6  Occ=0.000000D+00  E= 2.629899D-02  Symmetry=a

 Vector    7  Occ=0.000000D+00  E= 3.490427D-02  Symmetry=a

 Vector    8  Occ=0.000000D+00  E= 4.722004D-02  Symmetry=a

 Vector    9  Occ=0.000000D+00  E= 4.934956D-02  Symmetry=a

 Vector   10  Occ=0.000000D+00  E= 4.934956D-02  Symmetry=a

 Vector   11  Occ=0.000000D+00  E= 1.009458D-01  Symmetry=a

 Vector   12  Occ=0.000000D+00  E= 1.124403D-01  Symmetry=a

 Vector   13  Occ=0.000000D+00  E= 1.134281D-01  Symmetry=a

 Vector   14  Occ=0.000000D+00  E= 1.134281D-01  Symmetry=a

         Total SCF energy =    -14.852495647897

 Vector    2  Occ=2.000000D+00  E=-2.473165D+00

 Vector    3  Occ=2.000000D+00  E=-1.574493D-01

 Vector    4  Occ=0.000000D+00  E=-3.438312D-02

 Vector    5  Occ=0.000000D+00  E= 2.629899D-02

 Vector    6  Occ=0.000000D+00  E= 2.629899D-02

 Vector    7  Occ=0.000000D+00  E= 3.490427D-02

 Vector    8  Occ=0.000000D+00  E= 4.722004D-02

 Vector    9  Occ=0.000000D+00  E= 4.934956D-02

 Vector   10  Occ=0.000000D+00  E= 4.934956D-02

 Vector   11  Occ=0.000000D+00  E= 1.009458D-01

 Vector   12  Occ=0.000000D+00  E= 1.124403D-01

 Vector   13  Occ=0.000000D+00  E= 1.134281D-01

 Vector   14  Occ=0.000000D+00  E= 1.134281D-01

 Vector   15  Occ=0.000000D+00  E= 1.358886D-01

 Vector   16  Occ=0.000000D+00  E= 1.358886D-01

 Vector   17  Occ=0.000000D+00  E= 1.448122D-01

 Vector   18  Occ=0.000000D+00  E= 1.675022D-01

 Vector   19  Occ=0.000000D+00  E= 2.156600D-01

 Vector   20  Occ=0.000000D+00  E= 2.156600D-01

 Vector   21  Occ=0.000000D+00  E= 2.223248D-01

 Vector   22  Occ=0.000000D+00  E= 2.223248D-01

 Vector   23  Occ=0.000000D+00  E= 2.535989D-01

 Vector   24  Occ=0.000000D+00  E= 2.535989D-01

 Vector   25  Occ=0.000000D+00  E= 2.832138D-01

 Vector   26  Occ=0.000000D+00  E= 3.165642D-01

 Vector   27  Occ=0.000000D+00  E= 3.165642D-01

 Vector   28  Occ=0.000000D+00  E= 3.632476D-01

 Vector   29  Occ=0.000000D+00  E= 3.691967D-01

 Vector   30  Occ=0.000000D+00  E= 3.691967D-01

 Vector   31  Occ=0.000000D+00  E= 3.823985D-01

 Vector   32  Occ=0.000000D+00  E= 3.828613D-01

 Vector   33  Occ=0.000000D+00  E= 3.828613D-01

 Vector   34  Occ=0.000000D+00  E= 3.988533D-01

 Vector   35  Occ=0.000000D+00  E= 4.224330D-01

 Vector   36  Occ=0.000000D+00  E= 4.906122D-01

 Vector   37  Occ=0.000000D+00  E= 6.738602D-01

       Multipole analysis of the density wrt the origin
       ------------------------------------------------

     L   x y z        total         open         nuclear
     -   - - -        -----         ----         -------
     0   0 0 0     -0.000000      0.000000      6.000000

     1   1 0 0      0.000024      0.000000      0.000000
     1   0 1 0      0.000000      0.000000      0.000000
     1   0 0 1      0.000035      0.000000      0.000000

     2   2 0 0    -12.818793      0.000000      0.000000
     2   1 1 0     -0.000000      0.000000      0.000000
     2   1 0 1     -0.000000      0.000000      0.000000
     2   0 2 0     -2.723968      0.000000     79.935000
     2   0 1 1      0.000000      0.000000      0.000000

 CCSD total energy / hartree       =       -14.918543206008977
 Total times  cpu:      483.7s     wall:      486.6s
