============================== echo of input deck ==============================
 echo
 start Li2
 title "Li2"

 memory total 24 gb

 geometry units bohr
 symmetry c1
        Li  0.00000000  0.00000000  0.00000000
        Li  0.00000000  7.5  0.00000000
 end

 basis
   * library cc-pVTZ
 end

 mcscf
   active  4
   actelec 6
   multiplicity 1
   maxiter 40
   vectors input Li2.mos
   vectors output Li2.mos
 end

 task mcscf

 scf
   vectors input Li2.mos
   vectors output Li2-7.5.mos
   noscf
 end

 tce
   2eorb
   2emet 13
   ccsd
   maxiter 300
   lshift 0.3
 end

# set tce:print_integrals T
# set tce:qorb 10
# set tce:qela 1
# set tce:qelb 1

 set tce:qducc T
 set tce:nactv 1
 set tce:nonhf T
 set tce:ducc_model 6

 set tce:printtol 0.02

 task tce
================================================================================

 Output coordinates in a.u. (scale by  1.000000000 to convert to a.u.)

  No.       Tag          Charge          X              Y              Z
 ---- ---------------- ---------- -------------- -------------- --------------
    1 Li                   3.0000     0.00000000    -3.75000000     0.00000000
    2 Li                   3.0000     0.00000000     3.75000000     0.00000000

 Vector    1  Occ=1.999998D+00  E=-2.474264D+00  Symmetry=a

 Vector    2  Occ=1.999998D+00  E=-2.474261D+00  Symmetry=a

 Vector    3  Occ=1.690419D+00  E=-1.548389D-01  Symmetry=a

 Vector    4  Occ=3.095852D-01  E=-3.714207D-02  Symmetry=a

 Vector    5  Occ=0.000000D+00  E= 2.624154D-02  Symmetry=a

 Vector    6  Occ=0.000000D+00  E= 2.624154D-02  Symmetry=a

 Vector    7  Occ=0.000000D+00  E= 3.469841D-02  Symmetry=a

 Vector    8  Occ=0.000000D+00  E= 4.745178D-02  Symmetry=a

 Vector    9  Occ=0.000000D+00  E= 4.882231D-02  Symmetry=a

 Vector   10  Occ=0.000000D+00  E= 4.882231D-02  Symmetry=a

 Vector   11  Occ=0.000000D+00  E= 1.013109D-01  Symmetry=a

 Vector   12  Occ=0.000000D+00  E= 1.116989D-01  Symmetry=a

 Vector   13  Occ=0.000000D+00  E= 1.137068D-01  Symmetry=a

 Vector   14  Occ=0.000000D+00  E= 1.137068D-01  Symmetry=a

         Total SCF energy =    -14.849859022570

 Vector    2  Occ=2.000000D+00  E=-2.474261D+00

 Vector    3  Occ=2.000000D+00  E=-1.548389D-01

 Vector    4  Occ=0.000000D+00  E=-3.714207D-02

 Vector    5  Occ=0.000000D+00  E= 2.624154D-02

 Vector    6  Occ=0.000000D+00  E= 2.624154D-02

 Vector    7  Occ=0.000000D+00  E= 3.469841D-02

 Vector    8  Occ=0.000000D+00  E= 4.745178D-02

 Vector    9  Occ=0.000000D+00  E= 4.882231D-02

 Vector   10  Occ=0.000000D+00  E= 4.882231D-02

 Vector   11  Occ=0.000000D+00  E= 1.013109D-01

 Vector   12  Occ=0.000000D+00  E= 1.116989D-01

 Vector   13  Occ=0.000000D+00  E= 1.137068D-01

 Vector   14  Occ=0.000000D+00  E= 1.137068D-01

 Vector   15  Occ=0.000000D+00  E= 1.345895D-01

 Vector   16  Occ=0.000000D+00  E= 1.345895D-01

 Vector   17  Occ=0.000000D+00  E= 1.435029D-01

 Vector   18  Occ=0.000000D+00  E= 1.646823D-01

 Vector   19  Occ=0.000000D+00  E= 2.158954D-01

 Vector   20  Occ=0.000000D+00  E= 2.158954D-01

 Vector   21  Occ=0.000000D+00  E= 2.199350D-01

 Vector   22  Occ=0.000000D+00  E= 2.199350D-01

 Vector   23  Occ=0.000000D+00  E= 2.517153D-01

 Vector   24  Occ=0.000000D+00  E= 2.517153D-01

 Vector   25  Occ=0.000000D+00  E= 2.803520D-01

 Vector   26  Occ=0.000000D+00  E= 3.127048D-01

 Vector   27  Occ=0.000000D+00  E= 3.127048D-01

 Vector   28  Occ=0.000000D+00  E= 3.585843D-01

 Vector   29  Occ=0.000000D+00  E= 3.685853D-01

 Vector   30  Occ=0.000000D+00  E= 3.685853D-01

 Vector   31  Occ=0.000000D+00  E= 3.820323D-01

 Vector   32  Occ=0.000000D+00  E= 3.820323D-01

 Vector   33  Occ=0.000000D+00  E= 3.822697D-01

 Vector   34  Occ=0.000000D+00  E= 3.988931D-01

 Vector   35  Occ=0.000000D+00  E= 4.224062D-01

 Vector   36  Occ=0.000000D+00  E= 4.892175D-01

 Vector   37  Occ=0.000000D+00  E= 6.707044D-01

       Multipole analysis of the density wrt the origin
       ------------------------------------------------

     L   x y z        total         open         nuclear
     -   - - -        -----         ----         -------
     0   0 0 0     -0.000000      0.000000      6.000000

     1   1 0 0     -0.000001      0.000000      0.000000
     1   0 1 0      0.000000      0.000000      0.000000
     1   0 0 1     -0.000001      0.000000      0.000000

     2   2 0 0    -12.851817      0.000000      0.000000
     2   1 1 0     -0.000000      0.000000      0.000000
     2   1 0 1      0.000000      0.000000      0.000000
     2   0 2 0     -2.881666      0.000000     84.375000
     2   0 1 1      0.000000      0.000000      0.000000

 CCSD total energy / hartree       =       -14.916590316830865
 Total times  cpu:      478.2s     wall:      481.6s
