============================== echo of input deck ==============================
 echo
 start Li2
 title "Li2"

 memory total 24 gb

 geometry units bohr
 symmetry c1
        Li  0.00000000  0.00000000  0.00000000
        Li  0.00000000  7.9  0.00000000
 end

 basis
   * library cc-pVTZ
 end

 mcscf
   active  4
   actelec 6
   multiplicity 1
   maxiter 40
   vectors input Li2.mos
   vectors output Li2.mos
 end

 task mcscf

 scf
   vectors input Li2.mos
   vectors output Li2-7.9.mos
   noscf
 end

 tce
   2eorb
   2emet 13
   ccsd
   maxiter 300
   lshift 0.3
 end

# set tce:print_integrals T
# set tce:qorb 10
# set tce:qela 1
# set tce:qelb 1

 set tce:qducc T
 set tce:nactv 1
 set tce:nonhf T
 set tce:ducc_model 6

 set tce:printtol 0.02

 task tce
================================================================================

 Output coordinates in a.u. (scale by  1.000000000 to convert to a.u.)

  No.       Tag          Charge          X              Y              Z
 ---- ---------------- ---------- -------------- -------------- --------------
    1 Li                   3.0000     0.00000000    -3.95000000     0.00000000
    2 Li                   3.0000     0.00000000     3.95000000     0.00000000

 Vector    1  Occ=1.999998D+00  E=-2.476001D+00  Symmetry=a

 Vector    2  Occ=1.999998D+00  E=-2.475999D+00  Symmetry=a

 Vector    3  Occ=1.631944D+00  E=-1.495684D-01  Symmetry=a

 Vector    4  Occ=3.680596D-01  E=-4.286064D-02  Symmetry=a

 Vector    5  Occ=0.000000D+00  E= 2.614228D-02  Symmetry=a

 Vector    6  Occ=0.000000D+00  E= 2.614228D-02  Symmetry=a

 Vector    7  Occ=0.000000D+00  E= 3.430924D-02  Symmetry=a

 Vector    8  Occ=0.000000D+00  E= 4.778429D-02  Symmetry=a

 Vector    9  Occ=0.000000D+00  E= 4.778429D-02  Symmetry=a

 Vector   10  Occ=0.000000D+00  E= 4.786231D-02  Symmetry=a

 Vector   11  Occ=0.000000D+00  E= 1.020954D-01  Symmetry=a

 Vector   12  Occ=0.000000D+00  E= 1.103434D-01  Symmetry=a

 Vector   13  Occ=0.000000D+00  E= 1.142431D-01  Symmetry=a

 Vector   14  Occ=0.000000D+00  E= 1.142431D-01  Symmetry=a

         Total SCF energy =    -14.844524407405

 Vector    2  Occ=2.000000D+00  E=-2.475999D+00

 Vector    3  Occ=2.000000D+00  E=-1.495684D-01

 Vector    4  Occ=0.000000D+00  E=-4.286064D-02

 Vector    5  Occ=0.000000D+00  E= 2.614228D-02

 Vector    6  Occ=0.000000D+00  E= 2.614228D-02

 Vector    7  Occ=0.000000D+00  E= 3.430924D-02

 Vector    8  Occ=0.000000D+00  E= 4.778429D-02

 Vector    9  Occ=0.000000D+00  E= 4.778429D-02

 Vector   10  Occ=0.000000D+00  E= 4.786231D-02

 Vector   11  Occ=0.000000D+00  E= 1.020954D-01

 Vector   12  Occ=0.000000D+00  E= 1.103434D-01

 Vector   13  Occ=0.000000D+00  E= 1.142431D-01

 Vector   14  Occ=0.000000D+00  E= 1.142431D-01

 Vector   15  Occ=0.000000D+00  E= 1.322434D-01

 Vector   16  Occ=0.000000D+00  E= 1.322434D-01

 Vector   17  Occ=0.000000D+00  E= 1.408708D-01

 Vector   18  Occ=0.000000D+00  E= 1.592569D-01

 Vector   19  Occ=0.000000D+00  E= 2.154737D-01

 Vector   20  Occ=0.000000D+00  E= 2.154737D-01

 Vector   21  Occ=0.000000D+00  E= 2.165509D-01

 Vector   22  Occ=0.000000D+00  E= 2.165509D-01

 Vector   23  Occ=0.000000D+00  E= 2.481792D-01

 Vector   24  Occ=0.000000D+00  E= 2.481792D-01

 Vector   25  Occ=0.000000D+00  E= 2.741067D-01

 Vector   26  Occ=0.000000D+00  E= 3.051804D-01

 Vector   27  Occ=0.000000D+00  E= 3.051804D-01

 Vector   28  Occ=0.000000D+00  E= 3.493621D-01

 Vector   29  Occ=0.000000D+00  E= 3.672032D-01

 Vector   30  Occ=0.000000D+00  E= 3.672032D-01

 Vector   31  Occ=0.000000D+00  E= 3.804429D-01

 Vector   32  Occ=0.000000D+00  E= 3.804429D-01

 Vector   33  Occ=0.000000D+00  E= 3.826251D-01

 Vector   34  Occ=0.000000D+00  E= 3.993434D-01

 Vector   35  Occ=0.000000D+00  E= 4.217751D-01

 Vector   36  Occ=0.000000D+00  E= 4.857722D-01

 Vector   37  Occ=0.000000D+00  E= 6.713185D-01

       Multipole analysis of the density wrt the origin
       ------------------------------------------------

     L   x y z        total         open         nuclear
     -   - - -        -----         ----         -------
     0   0 0 0     -0.000000      0.000000      6.000000

     1   1 0 0     -0.000000      0.000000      0.000000
     1   0 1 0      0.000000      0.000000     -0.000000
     1   0 0 1      0.000000      0.000000      0.000000

     2   2 0 0    -12.896871      0.000000      0.000000
     2   1 1 0     -0.000000      0.000000      0.000000
     2   1 0 1      0.000000      0.000000      0.000000
     2   0 2 0     -3.274233      0.000000     93.615000
     2   0 1 1      0.000000      0.000000      0.000000

 CCSD total energy / hartree       =       -14.912957359417421
 Total times  cpu:      475.7s     wall:      479.1s
