============================== echo of input deck ==============================
 echo
 start Li2
 title "Li2"

 memory total 24 gb

 geometry units bohr
 symmetry c1
        Li  0.00000000  0.00000000  0.00000000
        Li  0.00000000  9.7  0.00000000
 end

 basis
   * library cc-pVTZ
 end

 mcscf
   active  4
   actelec 6
   multiplicity 1
   maxiter 40
   vectors input Li2.mos
   vectors output Li2.mos
 end

 task mcscf

 scf
   vectors input Li2.mos
   vectors output Li2-9.7.mos
   noscf
 end

 tce
   2eorb
   2emet 13
   ccsd
   maxiter 300
   lshift 0.3
 end

# set tce:print_integrals T
# set tce:qorb 10
# set tce:qela 1
# set tce:qelb 1

 set tce:qducc T
 set tce:nactv 1
 set tce:nonhf T
 set tce:ducc_model 6

 set tce:printtol 0.02

 task tce
================================================================================

 Output coordinates in a.u. (scale by  1.000000000 to convert to a.u.)

  No.       Tag          Charge          X              Y              Z
 ---- ---------------- ---------- -------------- -------------- --------------
    1 Li                   3.0000     0.00000000    -4.85000000     0.00000000
    2 Li                   3.0000     0.00000000     4.85000000     0.00000000

 Vector    1  Occ=1.999999D+00  E=-2.478602D+00  Symmetry=a

 Vector    2  Occ=1.999999D+00  E=-2.478601D+00  Symmetry=a

 Vector    3  Occ=1.367421D+00  E=-1.276317D-01  Symmetry=a

 Vector    4  Occ=6.325802D-01  E=-6.721224D-02  Symmetry=a

 Vector    5  Occ=0.000000D+00  E= 2.619472D-02  Symmetry=a

 Vector    6  Occ=0.000000D+00  E= 2.619472D-02  Symmetry=a

 Vector    7  Occ=0.000000D+00  E= 3.266237D-02  Symmetry=a

 Vector    8  Occ=0.000000D+00  E= 4.359644D-02  Symmetry=a

 Vector    9  Occ=0.000000D+00  E= 4.359644D-02  Symmetry=a

 Vector   10  Occ=0.000000D+00  E= 4.847467D-02  Symmetry=a

 Vector   11  Occ=0.000000D+00  E= 1.030235D-01  Symmetry=a

 Vector   12  Occ=0.000000D+00  E= 1.089407D-01  Symmetry=a

 Vector   13  Occ=0.000000D+00  E= 1.166836D-01  Symmetry=a

 Vector   14  Occ=0.000000D+00  E= 1.166836D-01  Symmetry=a

         Total SCF energy =    -14.821882318579

 Vector    2  Occ=2.000000D+00  E=-2.478601D+00

 Vector    3  Occ=2.000000D+00  E=-1.276317D-01

 Vector    4  Occ=0.000000D+00  E=-6.721224D-02

 Vector    5  Occ=0.000000D+00  E= 2.619472D-02

 Vector    6  Occ=0.000000D+00  E= 2.619472D-02

 Vector    7  Occ=0.000000D+00  E= 3.266237D-02

 Vector    8  Occ=0.000000D+00  E= 4.359644D-02

 Vector    9  Occ=0.000000D+00  E= 4.359644D-02

 Vector   10  Occ=0.000000D+00  E= 4.847467D-02

 Vector   11  Occ=0.000000D+00  E= 1.030235D-01

 Vector   12  Occ=0.000000D+00  E= 1.089407D-01

 Vector   13  Occ=0.000000D+00  E= 1.166836D-01

 Vector   14  Occ=0.000000D+00  E= 1.166836D-01

 Vector   15  Occ=0.000000D+00  E= 1.254229D-01

 Vector   16  Occ=0.000000D+00  E= 1.254229D-01

 Vector   17  Occ=0.000000D+00  E= 1.291508D-01

 Vector   18  Occ=0.000000D+00  E= 1.411931D-01

 Vector   19  Occ=0.000000D+00  E= 2.049958D-01

 Vector   20  Occ=0.000000D+00  E= 2.049958D-01

 Vector   21  Occ=0.000000D+00  E= 2.215263D-01

 Vector   22  Occ=0.000000D+00  E= 2.215263D-01

 Vector   23  Occ=0.000000D+00  E= 2.363919D-01

 Vector   24  Occ=0.000000D+00  E= 2.363919D-01

 Vector   25  Occ=0.000000D+00  E= 2.407655D-01

 Vector   26  Occ=0.000000D+00  E= 2.746526D-01

 Vector   27  Occ=0.000000D+00  E= 2.746526D-01

 Vector   28  Occ=0.000000D+00  E= 3.186447D-01

 Vector   29  Occ=0.000000D+00  E= 3.613969D-01

 Vector   30  Occ=0.000000D+00  E= 3.613969D-01

 Vector   31  Occ=0.000000D+00  E= 3.752662D-01

 Vector   32  Occ=0.000000D+00  E= 3.752662D-01

 Vector   33  Occ=0.000000D+00  E= 3.817054D-01

 Vector   34  Occ=0.000000D+00  E= 3.977158D-01

 Vector   35  Occ=0.000000D+00  E= 3.989893D-01

 Vector   36  Occ=0.000000D+00  E= 4.647095D-01

 Vector   37  Occ=0.000000D+00  E= 7.114375D-01

       Multipole analysis of the density wrt the origin
       ------------------------------------------------

     L   x y z        total         open         nuclear
     -   - - -        -----         ----         -------
     0   0 0 0     -0.000000      0.000000      6.000000

     1   1 0 0     -0.000000      0.000000      0.000000
     1   0 1 0      0.000000      0.000000      0.000000
     1   0 0 1      0.000000      0.000000      0.000000

     2   2 0 0    -12.863687      0.000000      0.000000
     2   1 1 0     -0.000000      0.000000      0.000000
     2   1 0 1      0.000000      0.000000      0.000000
     2   0 2 0     -5.714164      0.000000    141.135000
     2   0 1 1      0.000000      0.000000      0.000000

 CCSD total energy / hartree       =       -14.902185716784393
 Total times  cpu:      475.9s     wall:      478.4s
