============================== echo of input deck ==============================
 echo
 start Li2
 title "Li2"

 memory total 24 gb

 geometry units bohr
 symmetry c1
        Li  0.00000000  0.00000000  0.00000000
        Li  0.00000000  9.8  0.00000000
 end

 basis
   * library cc-pVTZ
 end

 mcscf
   active  4
   actelec 6
   multiplicity 1
   maxiter 40
   vectors input Li2.mos
   vectors output Li2.mos
 end

 task mcscf

 scf
   vectors input Li2.mos
   vectors output Li2-9.8.mos
   noscf
 end

 tce
   2eorb
   2emet 13
   ccsd
   maxiter 300
   lshift 0.3
 end

# set tce:print_integrals T
# set tce:qorb 10
# set tce:qela 1
# set tce:qelb 1

 set tce:qducc T
 set tce:nactv 1
 set tce:nonhf T
 set tce:ducc_model 6

 set tce:printtol 0.02

 task tce
================================================================================

 Output coordinates in a.u. (scale by  1.000000000 to convert to a.u.)

  No.       Tag          Charge          X              Y              Z
 ---- ---------------- ---------- -------------- -------------- --------------
    1 Li                   3.0000     0.00000000    -4.90000000     0.00000000
    2 Li                   3.0000     0.00000000     4.90000000     0.00000000

 Vector    1  Occ=2.000000D+00  E=-2.478606D+00  Symmetry=a

 Vector    2  Occ=2.000000D+00  E=-2.478606D+00  Symmetry=a

 Vector    3  Occ=1.354603D+00  E=-1.266030D-01  Symmetry=a

 Vector    4  Occ=6.453976D-01  E=-6.833932D-02  Symmetry=a

 Vector    5  Occ=0.000000D+00  E= 2.622383D-02  Symmetry=a

 Vector    6  Occ=0.000000D+00  E= 2.622383D-02  Symmetry=a

 Vector    7  Occ=0.000000D+00  E= 3.256755D-02  Symmetry=a

 Vector    8  Occ=0.000000D+00  E= 4.339303D-02  Symmetry=a

 Vector    9  Occ=0.000000D+00  E= 4.339303D-02  Symmetry=a

 Vector   10  Occ=0.000000D+00  E= 4.844907D-02  Symmetry=a

 Vector   11  Occ=0.000000D+00  E= 1.029152D-01  Symmetry=a

 Vector   12  Occ=0.000000D+00  E= 1.090976D-01  Symmetry=a

 Vector   13  Occ=0.000000D+00  E= 1.168220D-01  Symmetry=a

 Vector   14  Occ=0.000000D+00  E= 1.168220D-01  Symmetry=a

         Total SCF energy =    -14.820759010446

 Vector    2  Occ=2.000000D+00  E=-2.478606D+00

 Vector    3  Occ=2.000000D+00  E=-1.266030D-01

 Vector    4  Occ=0.000000D+00  E=-6.833932D-02

 Vector    5  Occ=0.000000D+00  E= 2.622383D-02

 Vector    6  Occ=0.000000D+00  E= 2.622383D-02

 Vector    7  Occ=0.000000D+00  E= 3.256755D-02

 Vector    8  Occ=0.000000D+00  E= 4.339303D-02

 Vector    9  Occ=0.000000D+00  E= 4.339303D-02

 Vector   10  Occ=0.000000D+00  E= 4.844907D-02

 Vector   11  Occ=0.000000D+00  E= 1.029152D-01

 Vector   12  Occ=0.000000D+00  E= 1.090976D-01

 Vector   13  Occ=0.000000D+00  E= 1.168220D-01

 Vector   14  Occ=0.000000D+00  E= 1.168220D-01

 Vector   15  Occ=0.000000D+00  E= 1.251927D-01

 Vector   16  Occ=0.000000D+00  E= 1.251927D-01

 Vector   17  Occ=0.000000D+00  E= 1.285227D-01

 Vector   18  Occ=0.000000D+00  E= 1.405352D-01

 Vector   19  Occ=0.000000D+00  E= 2.050158D-01

 Vector   20  Occ=0.000000D+00  E= 2.050158D-01

 Vector   21  Occ=0.000000D+00  E= 2.218247D-01

 Vector   22  Occ=0.000000D+00  E= 2.218247D-01

 Vector   23  Occ=0.000000D+00  E= 2.359341D-01

 Vector   24  Occ=0.000000D+00  E= 2.359341D-01

 Vector   25  Occ=0.000000D+00  E= 2.388833D-01

 Vector   26  Occ=0.000000D+00  E= 2.731235D-01

 Vector   27  Occ=0.000000D+00  E= 2.731235D-01

 Vector   28  Occ=0.000000D+00  E= 3.172788D-01

 Vector   29  Occ=0.000000D+00  E= 3.612286D-01

 Vector   30  Occ=0.000000D+00  E= 3.612286D-01

 Vector   31  Occ=0.000000D+00  E= 3.750453D-01

 Vector   32  Occ=0.000000D+00  E= 3.750453D-01

 Vector   33  Occ=0.000000D+00  E= 3.805736D-01

 Vector   34  Occ=0.000000D+00  E= 3.975160D-01

 Vector   35  Occ=0.000000D+00  E= 3.982973D-01

 Vector   36  Occ=0.000000D+00  E= 4.634594D-01

 Vector   37  Occ=0.000000D+00  E= 7.113331D-01

       Multipole analysis of the density wrt the origin
       ------------------------------------------------

     L   x y z        total         open         nuclear
     -   - - -        -----         ----         -------
     0   0 0 0     -0.000000      0.000000      6.000000

     1   1 0 0     -0.000000      0.000000      0.000000
     1   0 1 0      0.000000      0.000000      0.000000
     1   0 0 1      0.000000      0.000000      0.000000

     2   2 0 0    -12.855648      0.000000      0.000000
     2   1 1 0     -0.000000      0.000000      0.000000
     2   1 0 1      0.000000      0.000000      0.000000
     2   0 2 0     -5.856781      0.000000    144.060000
     2   0 1 1      0.000000      0.000000      0.000000

 CCSD total energy / hartree       =       -14.901835178670005
 Total times  cpu:      476.8s     wall:      480.4s
