============================== echo of input deck ==============================
 echo
 start H2O
 title "H2O"

 memory total 24 gb

 geometry units bohr
 symmetry c1
        O  0.00000000  0.00000000  0.00000000
        H  0.00000000  1.66832225  0.00000000
        H  1.72558000 -0.64860000  0.00000000
 end

 basis spherical
   * library 6-311++G**
 end

 mcscf
   active  8
   actelec 10
   multiplicity 1
   maxiter 40
   vectors input h2o.mos
   vectors output h2o.mos
 end

 task mcscf

 scf
   vectors input h2o.mos
   vectors output h2o-trash.mos
   noscf
 end

 tce
   2eorb
   2emet 13
   ccsd
   maxiter 300
 end

# set tce:print_integrals T
# set tce:qorb 8
# set tce:qela 5
# set tce:qelb 5

 set tce:qducc T
 set tce:nactv 3
 set tce:nonhf T
 set tce:ducc_model 6

 set tce:printtol 0.02

 task tce
================================================================================

 Output coordinates in a.u. (scale by  1.000000000 to convert to a.u.)

  No.       Tag          Charge          X              Y              Z
 ---- ---------------- ---------- -------------- -------------- --------------
    1 O                    8.0000    -0.17255800    -0.10197223     0.00000000
    2 H                    1.0000    -0.17255800     1.56635003     0.00000000
    3 H                    1.0000     1.55302200    -0.75057223     0.00000000

 Vector    1  Occ=1.999989D+00  E=-2.055270D+01  Symmetry=a

 Vector    2  Occ=1.999039D+00  E=-1.380495D+00  Symmetry=a

 Vector    3  Occ=1.981684D+00  E=-7.756079D-01  Symmetry=a

 Vector    4  Occ=1.981316D+00  E=-5.979544D-01  Symmetry=a

 Vector    5  Occ=1.977020D+00  E=-5.353644D-01  Symmetry=a

 Vector    6  Occ=2.371256D-02  E=-2.593353D-02  Symmetry=a

 Vector    7  Occ=1.918434D-02  E=-2.206807D-02  Symmetry=a

 Vector    8  Occ=1.805563D-02  E=-1.691231D-02  Symmetry=a

 Vector    9  Occ=0.000000D+00  E= 6.978305D-02  Symmetry=a

 Vector   10  Occ=0.000000D+00  E= 8.756805D-02  Symmetry=a

 Vector   11  Occ=0.000000D+00  E= 2.413774D-01  Symmetry=a

 Vector   12  Occ=0.000000D+00  E= 2.779050D-01  Symmetry=a

 Vector   13  Occ=0.000000D+00  E= 3.147918D-01  Symmetry=a

 Vector   14  Occ=0.000000D+00  E= 4.912045D-01  Symmetry=a

 Vector   15  Occ=0.000000D+00  E= 5.083573D-01  Symmetry=a

 Vector   16  Occ=0.000000D+00  E= 6.036869D-01  Symmetry=a

 Vector   17  Occ=0.000000D+00  E= 9.635015D-01  Symmetry=a

 Vector   18  Occ=0.000000D+00  E= 1.034309D+00  Symmetry=a

         Total SCF energy =    -76.046138977417

 Vector    2  Occ=2.000000D+00  E=-1.380495D+00

 Vector    3  Occ=2.000000D+00  E=-7.756079D-01

 Vector    4  Occ=2.000000D+00  E=-5.979544D-01

 Vector    5  Occ=2.000000D+00  E=-5.353644D-01

 Vector    6  Occ=0.000000D+00  E=-2.593353D-02

 Vector    7  Occ=0.000000D+00  E=-2.206807D-02

 Vector    8  Occ=0.000000D+00  E=-1.691231D-02

 Vector    9  Occ=0.000000D+00  E= 6.978305D-02

 Vector   10  Occ=0.000000D+00  E= 8.756805D-02

 Vector   11  Occ=0.000000D+00  E= 2.413774D-01

 Vector   12  Occ=0.000000D+00  E= 2.779050D-01

 Vector   13  Occ=0.000000D+00  E= 3.147918D-01

 Vector   14  Occ=0.000000D+00  E= 4.912045D-01

 Vector   15  Occ=0.000000D+00  E= 5.083573D-01

       Multipole analysis of the density wrt the origin
       ------------------------------------------------

     L   x y z        total         open         nuclear
     -   - - -        -----         ----         -------
     0   0 0 0     -0.000000      0.000000     10.000000

     1   1 0 0      0.674449      0.000000     -0.000000
     1   0 1 0      0.424910      0.000000     -0.000000
     1   0 0 1     -0.000000      0.000000      0.000000

     2   2 0 0     -4.189384      0.000000      2.679864
     2   1 1 0     -0.851424      0.000000     -1.295172
     2   1 0 1      0.000000      0.000000      0.000000
     2   0 2 0     -3.744966      0.000000      3.099998
     2   0 1 1      0.000000      0.000000      0.000000

 CCSD total energy / hartree       =       -76.292406084259184
 Total times  cpu:       51.9s     wall:       54.1s
