============================== echo of input deck ==============================
 echo
 start H2O
 title "H2O"

 memory total 24 gb

 geometry units bohr
 symmetry c1
        O  0.00000000  0.00000000  0.00000000
        H  0.00000000  1.659105  0.00000000
        H  1.72558000 -0.64860000  0.00000000
 end

 basis spherical
   * library 6-311++G**
 end

 mcscf
   active  8
   actelec 10
   multiplicity 1
   maxiter 40
   vectors input h2o.mos
   vectors output h2o.mos
 end

 task mcscf

 scf
   vectors input h2o.mos
   vectors output h2o-trash.mos
   noscf
 end

 tce
   2eorb
   2emet 13
   ccsd
   maxiter 300
 end

# set tce:print_integrals T
# set tce:qorb 8
# set tce:qela 5
# set tce:qelb 5

 set tce:qducc T
 set tce:nactv 3
 set tce:nonhf T
 set tce:ducc_model 6

 set tce:printtol 0.02

 task tce
================================================================================

 Output coordinates in a.u. (scale by  1.000000000 to convert to a.u.)

  No.       Tag          Charge          X              Y              Z
 ---- ---------------- ---------- -------------- -------------- --------------
    1 O                    8.0000    -0.17255800    -0.10105050     0.00000000
    2 H                    1.0000    -0.17255800     1.55805450     0.00000000
    3 H                    1.0000     1.55302200    -0.74965050     0.00000000

 Vector    1  Occ=1.999989D+00  E=-2.055223D+01  Symmetry=a

 Vector    2  Occ=1.999045D+00  E=-1.382066D+00  Symmetry=a

 Vector    3  Occ=1.981736D+00  E=-7.770064D-01  Symmetry=a

 Vector    4  Occ=1.981543D+00  E=-5.983163D-01  Symmetry=a

 Vector    5  Occ=1.977054D+00  E=-5.356039D-01  Symmetry=a

 Vector    6  Occ=2.367661D-02  E=-2.592636D-02  Symmetry=a

 Vector    7  Occ=1.894933D-02  E=-2.188126D-02  Symmetry=a

 Vector    8  Occ=1.800702D-02  E=-1.690540D-02  Symmetry=a

 Vector    9  Occ=0.000000D+00  E= 6.968944D-02  Symmetry=a

 Vector   10  Occ=0.000000D+00  E= 8.755395D-02  Symmetry=a

 Vector   11  Occ=0.000000D+00  E= 2.416638D-01  Symmetry=a

 Vector   12  Occ=0.000000D+00  E= 2.779122D-01  Symmetry=a

 Vector   13  Occ=0.000000D+00  E= 3.146937D-01  Symmetry=a

 Vector   14  Occ=0.000000D+00  E= 4.911078D-01  Symmetry=a

 Vector   15  Occ=0.000000D+00  E= 5.090382D-01  Symmetry=a

 Vector   16  Occ=0.000000D+00  E= 6.029967D-01  Symmetry=a

 Vector   17  Occ=0.000000D+00  E= 9.612639D-01  Symmetry=a

 Vector   18  Occ=0.000000D+00  E= 1.034170D+00  Symmetry=a

         Total SCF energy =    -76.045333022090

 Vector    2  Occ=2.000000D+00  E=-1.382066D+00

 Vector    3  Occ=2.000000D+00  E=-7.770064D-01

 Vector    4  Occ=2.000000D+00  E=-5.983163D-01

 Vector    5  Occ=2.000000D+00  E=-5.356039D-01

 Vector    6  Occ=0.000000D+00  E=-2.592636D-02

 Vector    7  Occ=0.000000D+00  E=-2.188126D-02

 Vector    8  Occ=0.000000D+00  E=-1.690540D-02

 Vector    9  Occ=0.000000D+00  E= 6.968944D-02

 Vector   10  Occ=0.000000D+00  E= 8.755395D-02

 Vector   11  Occ=0.000000D+00  E= 2.416638D-01

 Vector   12  Occ=0.000000D+00  E= 2.779122D-01

 Vector   13  Occ=0.000000D+00  E= 3.146937D-01

 Vector   14  Occ=0.000000D+00  E= 4.911078D-01

 Vector   15  Occ=0.000000D+00  E= 5.090382D-01

       Multipole analysis of the density wrt the origin
       ------------------------------------------------

     L   x y z        total         open         nuclear
     -   - - -        -----         ----         -------
     0   0 0 0     -0.000000      0.000000     10.000000

     1   1 0 0      0.674946      0.000000     -0.000000
     1   0 1 0      0.422917      0.000000     -0.000000
     1   0 0 1     -0.000000      0.000000      0.000000

     2   2 0 0     -4.184907      0.000000      2.679864
     2   1 1 0     -0.850280      0.000000     -1.293582
     2   1 0 1      0.000000      0.000000      0.000000
     2   0 2 0     -3.751193      0.000000      3.071199
     2   0 1 1      0.000000      0.000000      0.000000

 CCSD total energy / hartree       =       -76.291438774252171
 Total times  cpu:       53.6s     wall:       55.9s
