============================== echo of input deck ==============================
 echo
 start H2O
 title "H2O"

 memory total 24 gb

 geometry units bohr
 symmetry c1
        O  0.00000000  0.00000000  0.00000000
        H  0.00000000  1.6775395  0.00000000
        H  1.72558000 -0.64860000  0.00000000
 end

 basis spherical
   * library 6-311++G**
 end

 mcscf
   active  8
   actelec 10
   multiplicity 1
   maxiter 40
   vectors input h2o.mos
   vectors output h2o.mos
 end

 task mcscf

 scf
   vectors input h2o.mos
   vectors output h2o-trash.mos
   noscf
 end

 tce
   2eorb
   2emet 13
   ccsd
   maxiter 300
 end

# set tce:print_integrals T
# set tce:qorb 8
# set tce:qela 5
# set tce:qelb 5

 set tce:qducc T
 set tce:nactv 3
 set tce:nonhf T
 set tce:ducc_model 6

 set tce:printtol 0.02

 task tce
================================================================================

 Output coordinates in a.u. (scale by  1.000000000 to convert to a.u.)

  No.       Tag          Charge          X              Y              Z
 ---- ---------------- ---------- -------------- -------------- --------------
    1 O                    8.0000    -0.17255800    -0.10289395     0.00000000
    2 H                    1.0000    -0.17255800     1.57464555     0.00000000
    3 H                    1.0000     1.55302200    -0.75149395     0.00000000

 Vector    1  Occ=1.999989D+00  E=-2.055317D+01  Symmetry=a

 Vector    2  Occ=1.999032D+00  E=-1.378945D+00  Symmetry=a

 Vector    3  Occ=1.981632D+00  E=-7.742136D-01  Symmetry=a

 Vector    4  Occ=1.981086D+00  E=-5.975930D-01  Symmetry=a

 Vector    5  Occ=1.976985D+00  E=-5.351278D-01  Symmetry=a

 Vector    6  Occ=2.374893D-02  E=-2.594159D-02  Symmetry=a

 Vector    7  Occ=1.942252D-02  E=-2.225482D-02  Symmetry=a

 Vector    8  Occ=1.810423D-02  E=-1.691904D-02  Symmetry=a

 Vector    9  Occ=0.000000D+00  E= 6.987410D-02  Symmetry=a

 Vector   10  Occ=0.000000D+00  E= 8.758034D-02  Symmetry=a

 Vector   11  Occ=0.000000D+00  E= 2.411062D-01  Symmetry=a

 Vector   12  Occ=0.000000D+00  E= 2.778991D-01  Symmetry=a

 Vector   13  Occ=0.000000D+00  E= 3.148878D-01  Symmetry=a

 Vector   14  Occ=0.000000D+00  E= 4.912944D-01  Symmetry=a

 Vector   15  Occ=0.000000D+00  E= 5.076933D-01  Symmetry=a

 Vector   16  Occ=0.000000D+00  E= 6.043775D-01  Symmetry=a

 Vector   17  Occ=0.000000D+00  E= 9.657085D-01  Symmetry=a

 Vector   18  Occ=0.000000D+00  E= 1.034481D+00  Symmetry=a

         Total SCF energy =    -76.046865228831

 Vector    2  Occ=2.000000D+00  E=-1.378945D+00

 Vector    3  Occ=2.000000D+00  E=-7.742136D-01

 Vector    4  Occ=2.000000D+00  E=-5.975930D-01

 Vector    5  Occ=2.000000D+00  E=-5.351278D-01

 Vector    6  Occ=0.000000D+00  E=-2.594159D-02

 Vector    7  Occ=0.000000D+00  E=-2.225482D-02

 Vector    8  Occ=0.000000D+00  E=-1.691904D-02

 Vector    9  Occ=0.000000D+00  E= 6.987410D-02

 Vector   10  Occ=0.000000D+00  E= 8.758034D-02

 Vector   11  Occ=0.000000D+00  E= 2.411062D-01

 Vector   12  Occ=0.000000D+00  E= 2.778991D-01

 Vector   13  Occ=0.000000D+00  E= 3.148878D-01

 Vector   14  Occ=0.000000D+00  E= 4.912944D-01

 Vector   15  Occ=0.000000D+00  E= 5.076933D-01

       Multipole analysis of the density wrt the origin
       ------------------------------------------------

     L   x y z        total         open         nuclear
     -   - - -        -----         ----         -------
     0   0 0 0     -0.000000      0.000000     10.000000

     1   1 0 0      0.673955      0.000000     -0.000000
     1   0 1 0      0.426895      0.000000     -0.000000
     1   0 0 1     -0.000000      0.000000      0.000000

     2   2 0 0     -4.193848      0.000000      2.679864
     2   1 1 0     -0.852568      0.000000     -1.296763
     2   1 0 1      0.000000      0.000000      0.000000
     2   0 2 0     -3.738675      0.000000      3.128949
     2   0 1 1      0.000000      0.000000      0.000000

 CCSD total energy / hartree       =       -76.293293967374979
 Total times  cpu:       54.7s     wall:       57.1s
