============================== echo of input deck ==============================
 echo
 start H2O
 title "H2O"

 memory total 24 gb

 geometry units bohr
 symmetry c1
        O  0.00000000  0.00000000  0.00000000
        H  0.00000000  1.72362575  0.00000000
        H  1.72558000 -0.64860000  0.00000000
 end

 basis spherical
   * library 6-311++G**
 end

 mcscf
   active  8
   actelec 10
   multiplicity 1
   maxiter 40
   vectors input h2o.mos
   vectors output h2o.mos
 end

 task mcscf

 scf
   vectors input h2o.mos
   vectors output h2o-trash.mos
   noscf
 end

 tce
   2eorb
   2emet 13
   ccsd
   maxiter 300
 end

# set tce:print_integrals T
# set tce:qorb 8
# set tce:qela 5
# set tce:qelb 5

 set tce:qducc T
 set tce:nactv 3
 set tce:nonhf T
 set tce:ducc_model 6

 set tce:printtol 0.02

 task tce
================================================================================

 Output coordinates in a.u. (scale by  1.000000000 to convert to a.u.)

  No.       Tag          Charge          X              Y              Z
 ---- ---------------- ---------- -------------- -------------- --------------
    1 O                    8.0000    -0.17255800    -0.10750258     0.00000000
    2 H                    1.0000    -0.17255800     1.61612318     0.00000000
    3 H                    1.0000     1.55302200    -0.75610258     0.00000000

 Vector    1  Occ=1.999989D+00  E=-2.055545D+01  Symmetry=a

 Vector    2  Occ=1.998997D+00  E=-1.371522D+00  Symmetry=a

 Vector    3  Occ=1.981370D+00  E=-7.673116D-01  Symmetry=a

 Vector    4  Occ=1.979888D+00  E=-5.957872D-01  Symmetry=a

 Vector    5  Occ=1.976811D+00  E=-5.339868D-01  Symmetry=a

 Vector    6  Occ=2.393775D-02  E=-2.599822D-02  Symmetry=a

 Vector    7  Occ=2.066094D-02  E=-2.318568D-02  Symmetry=a

 Vector    8  Occ=1.834664D-02  E=-1.694979D-02  Symmetry=a

 Vector    9  Occ=0.000000D+00  E= 7.029663D-02  Symmetry=a

 Vector   10  Occ=0.000000D+00  E= 8.761861D-02  Symmetry=a

 Vector   11  Occ=0.000000D+00  E= 2.399480D-01  Symmetry=a

 Vector   12  Occ=0.000000D+00  E= 2.778882D-01  Symmetry=a

 Vector   13  Occ=0.000000D+00  E= 3.153379D-01  Symmetry=a

 Vector   14  Occ=0.000000D+00  E= 4.916125D-01  Symmetry=a

 Vector   15  Occ=0.000000D+00  E= 5.046611D-01  Symmetry=a

 Vector   16  Occ=0.000000D+00  E= 6.078331D-01  Symmetry=a

 Vector   17  Occ=0.000000D+00  E= 9.762183D-01  Symmetry=a

 Vector   18  Occ=0.000000D+00  E= 1.035884D+00  Symmetry=a

         Total SCF energy =    -76.049387611568

 Vector    2  Occ=2.000000D+00  E=-1.371522D+00

 Vector    3  Occ=2.000000D+00  E=-7.673116D-01

 Vector    4  Occ=2.000000D+00  E=-5.957872D-01

 Vector    5  Occ=2.000000D+00  E=-5.339868D-01

 Vector    6  Occ=0.000000D+00  E=-2.599822D-02

 Vector    7  Occ=0.000000D+00  E=-2.318568D-02

 Vector    8  Occ=0.000000D+00  E=-1.694979D-02

 Vector    9  Occ=0.000000D+00  E= 7.029663D-02

 Vector   10  Occ=0.000000D+00  E= 8.761861D-02

 Vector   11  Occ=0.000000D+00  E= 2.399480D-01

 Vector   12  Occ=0.000000D+00  E= 2.778882D-01

 Vector   13  Occ=0.000000D+00  E= 3.153379D-01

 Vector   14  Occ=0.000000D+00  E= 4.916125D-01

 Vector   15  Occ=0.000000D+00  E= 5.046611D-01

       Multipole analysis of the density wrt the origin
       ------------------------------------------------

     L   x y z        total         open         nuclear
     -   - - -        -----         ----         -------
     0   0 0 0     -0.000000      0.000000     10.000000

     1   1 0 0      0.671536      0.000000     -0.000000
     1   0 1 0      0.436700      0.000000      0.000000
     1   0 0 1     -0.000000      0.000000      0.000000

     2   2 0 0     -4.215956      0.000000      2.679864
     2   1 1 0     -0.858264      0.000000     -1.304715
     2   1 0 1      0.000000      0.000000      0.000000
     2   0 2 0     -3.706295      0.000000      3.276000
     2   0 1 1      0.000000      0.000000      0.000000

 CCSD total energy / hartree       =       -76.296629195656891
 Total times  cpu:       52.2s     wall:       54.5s
