============================== echo of input deck ==============================
 echo
 start H2O
 title "H2O"

 memory total 24 gb

 geometry units bohr
 symmetry c1
        O  0.00000000  0.00000000  0.00000000
        H  0.00000000  1.7144085  0.00000000
        H  1.72558000 -0.64860000  0.00000000
 end

 basis spherical
   * library 6-311++G**
 end

 mcscf
   active  8
   actelec 10
   multiplicity 1
   maxiter 40
   vectors input h2o.mos
   vectors output h2o.mos
 end

 task mcscf

 scf
   vectors input h2o.mos
   vectors output h2o-trash.mos
   noscf
 end

 tce
   2eorb
   2emet 13
   ccsd
   maxiter 300
 end

# set tce:print_integrals T
# set tce:qorb 8
# set tce:qela 5
# set tce:qelb 5

 set tce:qducc T
 set tce:nactv 3
 set tce:nonhf T
 set tce:ducc_model 6

 set tce:printtol 0.02

 task tce
================================================================================

 Output coordinates in a.u. (scale by  1.000000000 to convert to a.u.)

  No.       Tag          Charge          X              Y              Z
 ---- ---------------- ---------- -------------- -------------- --------------
    1 O                    8.0000    -0.17255800    -0.10658085     0.00000000
    2 H                    1.0000    -0.17255800     1.60782765     0.00000000
    3 H                    1.0000     1.55302200    -0.75518085     0.00000000

 Vector    1  Occ=1.999989D+00  E=-2.055500D+01  Symmetry=a

 Vector    2  Occ=1.999004D+00  E=-1.372964D+00  Symmetry=a

 Vector    3  Occ=1.981422D+00  E=-7.686823D-01  Symmetry=a

 Vector    4  Occ=1.980134D+00  E=-5.961487D-01  Symmetry=a

 Vector    5  Occ=1.976846D+00  E=-5.342095D-01  Symmetry=a

 Vector    6  Occ=2.389892D-02  E=-2.598427D-02  Symmetry=a

 Vector    7  Occ=2.040697D-02  E=-2.300024D-02  Symmetry=a

 Vector    8  Occ=1.829829D-02  E=-1.694405D-02  Symmetry=a

 Vector    9  Occ=0.000000D+00  E= 7.021601D-02  Symmetry=a

 Vector   10  Occ=0.000000D+00  E= 8.761371D-02  Symmetry=a

 Vector   11  Occ=0.000000D+00  E= 2.401559D-01  Symmetry=a

 Vector   12  Occ=0.000000D+00  E= 2.778880D-01  Symmetry=a

 Vector   13  Occ=0.000000D+00  E= 3.152516D-01  Symmetry=a

 Vector   14  Occ=0.000000D+00  E= 4.915695D-01  Symmetry=a

 Vector   15  Occ=0.000000D+00  E= 5.052257D-01  Symmetry=a

 Vector   16  Occ=0.000000D+00  E= 6.071419D-01  Symmetry=a

 Vector   17  Occ=0.000000D+00  E= 9.741936D-01  Symmetry=a

 Vector   18  Occ=0.000000D+00  E= 1.035524D+00  Symmetry=a

         Total SCF energy =    -76.049023110556

 Vector    2  Occ=2.000000D+00  E=-1.372964D+00

 Vector    3  Occ=2.000000D+00  E=-7.686823D-01

 Vector    4  Occ=2.000000D+00  E=-5.961487D-01

 Vector    5  Occ=2.000000D+00  E=-5.342095D-01

 Vector    6  Occ=0.000000D+00  E=-2.598427D-02

 Vector    7  Occ=0.000000D+00  E=-2.300024D-02

 Vector    8  Occ=0.000000D+00  E=-1.694405D-02

 Vector    9  Occ=0.000000D+00  E= 7.021601D-02

 Vector   10  Occ=0.000000D+00  E= 8.761371D-02

 Vector   11  Occ=0.000000D+00  E= 2.401559D-01

 Vector   12  Occ=0.000000D+00  E= 2.778880D-01

 Vector   13  Occ=0.000000D+00  E= 3.152516D-01

 Vector   14  Occ=0.000000D+00  E= 4.915695D-01

 Vector   15  Occ=0.000000D+00  E= 5.052257D-01

       Multipole analysis of the density wrt the origin
       ------------------------------------------------

     L   x y z        total         open         nuclear
     -   - - -        -----         ----         -------
     0   0 0 0     -0.000000      0.000000     10.000000

     1   1 0 0      0.672014      0.000000     -0.000000
     1   0 1 0      0.434758      0.000000      0.000000
     1   0 0 1     -0.000000      0.000000      0.000000

     2   2 0 0     -4.211564      0.000000      2.679864
     2   1 1 0     -0.857129      0.000000     -1.303125
     2   1 0 1      0.000000      0.000000      0.000000
     2   0 2 0     -3.712891      0.000000      3.246284
     2   0 1 1      0.000000      0.000000      0.000000

 CCSD total energy / hartree       =       -76.296101452687196
 Total times  cpu:       51.7s     wall:       54.2s
