============================== echo of input deck ==============================
 echo
 start H2O
 title "H2O"

 memory total 24 gb

 geometry units bohr
 symmetry c1
        O  0.00000000  0.00000000  0.00000000
        H  0.00000000  1.74206025  0.00000000
        H  1.72558000 -0.64860000  0.00000000
 end

 basis spherical
   * library 6-311++G**
 end

 mcscf
   active  8
   actelec 10
   multiplicity 1
   maxiter 40
   vectors input h2o.mos
   vectors output h2o.mos
 end

 task mcscf

 scf
   vectors input h2o.mos
   vectors output h2o-trash.mos
   noscf
 end

 tce
   2eorb
   2emet 13
   ccsd
   maxiter 300
 end

# set tce:print_integrals T
# set tce:qorb 8
# set tce:qela 5
# set tce:qelb 5

 set tce:qducc T
 set tce:nactv 3
 set tce:nonhf T
 set tce:ducc_model 6

 set tce:printtol 0.02

 task tce
================================================================================

 Output coordinates in a.u. (scale by  1.000000000 to convert to a.u.)

  No.       Tag          Charge          X              Y              Z
 ---- ---------------- ---------- -------------- -------------- --------------
    1 O                    8.0000    -0.17255800    -0.10934603     0.00000000
    2 H                    1.0000    -0.17255800     1.63271423     0.00000000
    3 H                    1.0000     1.55302200    -0.75794603     0.00000000

 Vector    1  Occ=1.999989D+00  E=-2.055633D+01  Symmetry=a

 Vector    2  Occ=1.998983D+00  E=-1.368700D+00  Symmetry=a

 Vector    3  Occ=1.981266D+00  E=-7.645857D-01  Symmetry=a

 Vector    4  Occ=1.979384D+00  E=-5.950629D-01  Symmetry=a

 Vector    5  Occ=1.976739D+00  E=-5.335499D-01  Symmetry=a

 Vector    6  Occ=2.401752D-02  E=-2.603154D-02  Symmetry=a

 Vector    7  Occ=2.117797D-02  E=-2.355411D-02  Symmetry=a

 Vector    8  Occ=1.844303D-02  E=-1.696063D-02  Symmetry=a

 Vector    9  Occ=0.000000D+00  E= 7.045287D-02  Symmetry=a

 Vector   10  Occ=0.000000D+00  E= 8.762489D-02  Symmetry=a

 Vector   11  Occ=0.000000D+00  E= 2.395629D-01  Symmetry=a

 Vector   12  Occ=0.000000D+00  E= 2.778921D-01  Symmetry=a

 Vector   13  Occ=0.000000D+00  E= 3.155052D-01  Symmetry=a

 Vector   14  Occ=0.000000D+00  E= 4.916602D-01  Symmetry=a

 Vector   15  Occ=0.000000D+00  E= 5.036026D-01  Symmetry=a

 Vector   16  Occ=0.000000D+00  E= 6.092146D-01  Symmetry=a

 Vector   17  Occ=0.000000D+00  E= 9.801350D-01  Symmetry=a

 Vector   18  Occ=0.000000D+00  E= 1.036738D+00  Symmetry=a

         Total SCF energy =    -76.049922182218

 Vector    2  Occ=2.000000D+00  E=-1.368700D+00

 Vector    3  Occ=2.000000D+00  E=-7.645857D-01

 Vector    4  Occ=2.000000D+00  E=-5.950629D-01

 Vector    5  Occ=2.000000D+00  E=-5.335499D-01

 Vector    6  Occ=0.000000D+00  E=-2.603154D-02

 Vector    7  Occ=0.000000D+00  E=-2.355411D-02

 Vector    8  Occ=0.000000D+00  E=-1.696063D-02

 Vector    9  Occ=0.000000D+00  E= 7.045287D-02

 Vector   10  Occ=0.000000D+00  E= 8.762489D-02

 Vector   11  Occ=0.000000D+00  E= 2.395629D-01

 Vector   12  Occ=0.000000D+00  E= 2.778921D-01

 Vector   13  Occ=0.000000D+00  E= 3.155052D-01

 Vector   14  Occ=0.000000D+00  E= 4.916602D-01

 Vector   15  Occ=0.000000D+00  E= 5.036026D-01

       Multipole analysis of the density wrt the origin
       ------------------------------------------------

     L   x y z        total         open         nuclear
     -   - - -        -----         ----         -------
     0   0 0 0     -0.000000      0.000000     10.000000

     1   1 0 0      0.670591      0.000000     -0.000000
     1   0 1 0      0.440555      0.000000      0.000000
     1   0 0 1     -0.000000      0.000000      0.000000

     2   2 0 0     -4.224694      0.000000      2.679864
     2   1 1 0     -0.860523      0.000000     -1.307897
     2   1 0 1      0.000000      0.000000      0.000000
     2   0 2 0     -3.692926      0.000000      3.335890
     2   0 1 1      0.000000      0.000000      0.000000

 CCSD total energy / hartree       =       -76.297491353398257
 Total times  cpu:       54.9s     wall:       57.6s
