============================== echo of input deck ==============================
 echo
 start H2O
 title "H2O"

 memory total 24 gb

 geometry units bohr
 symmetry c1
        O  0.00000000  0.00000000  0.00000000
        H  0.00000000  1.732843  0.00000000
        H  1.72558000 -0.64860000  0.00000000
 end

 basis spherical
   * library 6-311++G**
 end

 mcscf
   active  8
   actelec 10
   multiplicity 1
   maxiter 40
   vectors input h2o.mos
   vectors output h2o.mos
 end

 task mcscf

 scf
   vectors input h2o.mos
   vectors output h2o-trash.mos
   noscf
 end

 tce
   2eorb
   2emet 13
   ccsd
   maxiter 300
 end

# set tce:print_integrals T
# set tce:qorb 8
# set tce:qela 5
# set tce:qelb 5

 set tce:qducc T
 set tce:nactv 3
 set tce:nonhf T
 set tce:ducc_model 6

 set tce:printtol 0.02

 task tce
================================================================================

 Output coordinates in a.u. (scale by  1.000000000 to convert to a.u.)

  No.       Tag          Charge          X              Y              Z
 ---- ---------------- ---------- -------------- -------------- --------------
    1 O                    8.0000    -0.17255800    -0.10842430     0.00000000
    2 H                    1.0000    -0.17255800     1.62441870     0.00000000
    3 H                    1.0000     1.55302200    -0.75702430     0.00000000

 Vector    1  Occ=1.999989D+00  E=-2.055589D+01  Symmetry=a

 Vector    2  Occ=1.998990D+00  E=-1.370100D+00  Symmetry=a

 Vector    3  Occ=1.981318D+00  E=-7.659460D-01  Symmetry=a

 Vector    4  Occ=1.979638D+00  E=-5.954253D-01  Symmetry=a

 Vector    5  Occ=1.976775D+00  E=-5.337670D-01  Symmetry=a

 Vector    6  Occ=2.397724D-02  E=-2.601387D-02  Symmetry=a

 Vector    7  Occ=2.091797D-02  E=-2.337040D-02  Symmetry=a

 Vector    8  Occ=1.839489D-02  E=-1.695532D-02  Symmetry=a

 Vector    9  Occ=0.000000D+00  E= 7.037555D-02  Symmetry=a

 Vector   10  Occ=0.000000D+00  E= 8.762231D-02  Symmetry=a

 Vector   11  Occ=0.000000D+00  E= 2.397505D-01  Symmetry=a

 Vector   12  Occ=0.000000D+00  E= 2.778896D-01  Symmetry=a

 Vector   13  Occ=0.000000D+00  E= 3.154224D-01  Symmetry=a

 Vector   14  Occ=0.000000D+00  E= 4.916432D-01  Symmetry=a

 Vector   15  Occ=0.000000D+00  E= 5.041197D-01  Symmetry=a

 Vector   16  Occ=0.000000D+00  E= 6.085240D-01  Symmetry=a

 Vector   17  Occ=0.000000D+00  E= 9.781997D-01  Symmetry=a

 Vector   18  Occ=0.000000D+00  E= 1.036288D+00  Symmetry=a

         Total SCF energy =    -76.049686596684

 Vector    2  Occ=2.000000D+00  E=-1.370100D+00

 Vector    3  Occ=2.000000D+00  E=-7.659460D-01

 Vector    4  Occ=2.000000D+00  E=-5.954253D-01

 Vector    5  Occ=2.000000D+00  E=-5.337670D-01

 Vector    6  Occ=0.000000D+00  E=-2.601387D-02

 Vector    7  Occ=0.000000D+00  E=-2.337040D-02

 Vector    8  Occ=0.000000D+00  E=-1.695532D-02

 Vector    9  Occ=0.000000D+00  E= 7.037555D-02

 Vector   10  Occ=0.000000D+00  E= 8.762231D-02

 Vector   11  Occ=0.000000D+00  E= 2.397505D-01

 Vector   12  Occ=0.000000D+00  E= 2.778896D-01

 Vector   13  Occ=0.000000D+00  E= 3.154224D-01

 Vector   14  Occ=0.000000D+00  E= 4.916432D-01

 Vector   15  Occ=0.000000D+00  E= 5.041197D-01

       Multipole analysis of the density wrt the origin
       ------------------------------------------------

     L   x y z        total         open         nuclear
     -   - - -        -----         ----         -------
     0   0 0 0     -0.000000      0.000000     10.000000

     1   1 0 0      0.671062      0.000000     -0.000000
     1   0 1 0      0.438633      0.000000      0.000000
     1   0 0 1     -0.000000      0.000000      0.000000

     2   2 0 0     -4.220333      0.000000      2.679864
     2   1 1 0     -0.859395      0.000000     -1.306306
     2   1 0 1      0.000000      0.000000      0.000000
     2   0 2 0     -3.699639      0.000000      3.305869
     2   0 1 1      0.000000      0.000000      0.000000

 CCSD total energy / hartree       =       -76.297091786009588
 Total times  cpu:       52.5s     wall:       55.1s
