============================== echo of input deck ==============================
 echo
 start H2O
 title "H2O"

 memory total 24 gb

 geometry units bohr
 symmetry c1
        O  0.00000000  0.00000000  0.00000000
        H  0.00000000  1.76049475  0.00000000
        H  1.72558000 -0.64860000  0.00000000
 end

 basis spherical
   * library 6-311++G**
 end

 mcscf
   active  8
   actelec 10
   multiplicity 1
   maxiter 40
   vectors input h2o.mos
   vectors output h2o.mos
 end

 task mcscf

 scf
   vectors input h2o.mos
   vectors output h2o-trash.mos
   noscf
 end

 tce
   2eorb
   2emet 13
   ccsd
   maxiter 300
 end

# set tce:print_integrals T
# set tce:qorb 8
# set tce:qela 5
# set tce:qelb 5

 set tce:qducc T
 set tce:nactv 3
 set tce:nonhf T
 set tce:ducc_model 6

 set tce:printtol 0.02

 task tce
================================================================================

 Output coordinates in a.u. (scale by  1.000000000 to convert to a.u.)

  No.       Tag          Charge          X              Y              Z
 ---- ---------------- ---------- -------------- -------------- --------------
    1 O                    8.0000    -0.17255800    -0.11118948     0.00000000
    2 H                    1.0000    -0.17255800     1.64930528     0.00000000
    3 H                    1.0000     1.55302200    -0.75978948     0.00000000

 Vector    1  Occ=1.999989D+00  E=-2.055720D+01  Symmetry=a

 Vector    2  Occ=1.998968D+00  E=-1.365961D+00  Symmetry=a

 Vector    3  Occ=1.981162D+00  E=-7.618814D-01  Symmetry=a

 Vector    4  Occ=1.978866D+00  E=-5.943362D-01  Symmetry=a

 Vector    5  Occ=1.976667D+00  E=-5.331239D-01  Symmetry=a

 Vector    6  Occ=2.410121D-02  E=-2.607460D-02  Symmetry=a

 Vector    7  Occ=2.170634D-02  E=-2.391695D-02  Symmetry=a

 Vector    8  Occ=1.853897D-02  E=-1.697058D-02  Symmetry=a

 Vector    9  Occ=0.000000D+00  E= 7.060299D-02  Symmetry=a

 Vector   10  Occ=0.000000D+00  E= 8.762689D-02  Symmetry=a

 Vector   11  Occ=0.000000D+00  E= 2.392152D-01  Symmetry=a

 Vector   12  Occ=0.000000D+00  E= 2.779006D-01  Symmetry=a

 Vector   13  Occ=0.000000D+00  E= 3.156660D-01  Symmetry=a

 Vector   14  Occ=0.000000D+00  E= 4.916483D-01  Symmetry=a

 Vector   15  Occ=0.000000D+00  E= 5.026465D-01  Symmetry=a

 Vector   16  Occ=0.000000D+00  E= 6.105949D-01  Symmetry=a

 Vector   17  Occ=0.000000D+00  E= 9.838572D-01  Symmetry=a

 Vector   18  Occ=0.000000D+00  E= 1.037788D+00  Symmetry=a

         Total SCF energy =    -76.050211291108

 Vector    2  Occ=2.000000D+00  E=-1.365961D+00

 Vector    3  Occ=2.000000D+00  E=-7.618814D-01

 Vector    4  Occ=2.000000D+00  E=-5.943362D-01

 Vector    5  Occ=2.000000D+00  E=-5.331239D-01

 Vector    6  Occ=0.000000D+00  E=-2.607460D-02

 Vector    7  Occ=0.000000D+00  E=-2.391695D-02

 Vector    8  Occ=0.000000D+00  E=-1.697058D-02

 Vector    9  Occ=0.000000D+00  E= 7.060299D-02

 Vector   10  Occ=0.000000D+00  E= 8.762689D-02

 Vector   11  Occ=0.000000D+00  E= 2.392152D-01

 Vector   12  Occ=0.000000D+00  E= 2.779006D-01

 Vector   13  Occ=0.000000D+00  E= 3.156660D-01

 Vector   14  Occ=0.000000D+00  E= 4.916483D-01

 Vector   15  Occ=0.000000D+00  E= 5.026465D-01

       Multipole analysis of the density wrt the origin
       ------------------------------------------------

     L   x y z        total         open         nuclear
     -   - - -        -----         ----         -------
     0   0 0 0     -0.000000      0.000000     10.000000

     1   1 0 0      0.669656      0.000000     -0.000000
     1   0 1 0      0.444364      0.000000      0.000000
     1   0 0 1     -0.000000      0.000000      0.000000

     2   2 0 0     -4.233368      0.000000      2.679864
     2   1 1 0     -0.862767      0.000000     -1.311078
     2   1 0 1      0.000000      0.000000      0.000000
     2   0 2 0     -3.679332      0.000000      3.396393
     2   0 1 1      0.000000      0.000000      0.000000

 CCSD total energy / hartree       =       -76.298109612352178
 Total times  cpu:       53.8s     wall:       56.6s
