============================== echo of input deck ==============================
 echo
 start H2O
 title "H2O"

 memory total 24 gb

 geometry units bohr
 symmetry c1
        O  0.00000000  0.00000000  0.00000000
        H  0.00000000  1.769712  0.00000000
        H  1.72558000 -0.64860000  0.00000000
 end

 basis spherical
   * library 6-311++G**
 end

 mcscf
   active  8
   actelec 10
   multiplicity 1
   maxiter 40
   vectors input h2o.mos
   vectors output h2o.mos
 end

 task mcscf

 scf
   vectors input h2o.mos
   vectors output h2o-trash.mos
   noscf
 end

 tce
   2eorb
   2emet 13
   ccsd
   maxiter 300
 end

# set tce:print_integrals T
# set tce:qorb 8
# set tce:qela 5
# set tce:qelb 5

 set tce:qducc T
 set tce:nactv 3
 set tce:nonhf T
 set tce:ducc_model 6

 set tce:printtol 0.02

 task tce
================================================================================

 Output coordinates in a.u. (scale by  1.000000000 to convert to a.u.)

  No.       Tag          Charge          X              Y              Z
 ---- ---------------- ---------- -------------- -------------- --------------
    1 O                    8.0000    -0.17255800    -0.11211120     0.00000000
    2 H                    1.0000    -0.17255800     1.65760080     0.00000000
    3 H                    1.0000     1.55302200    -0.76071120     0.00000000

 Vector    1  Occ=1.999989D+00  E=-2.055764D+01  Symmetry=a

 Vector    2  Occ=1.998961D+00  E=-1.364621D+00  Symmetry=a

 Vector    3  Occ=1.981111D+00  E=-7.605377D-01  Symmetry=a

 Vector    4  Occ=1.978602D+00  E=-5.939716D-01  Symmetry=a

 Vector    5  Occ=1.976631D+00  E=-5.329150D-01  Symmetry=a

 Vector    6  Occ=2.414517D-02  E=-2.610114D-02  Symmetry=a

 Vector    7  Occ=2.197417D-02  E=-2.409495D-02  Symmetry=a

 Vector    8  Occ=1.858671D-02  E=-1.697521D-02  Symmetry=a

 Vector    9  Occ=0.000000D+00  E= 7.067605D-02  Symmetry=a

 Vector   10  Occ=0.000000D+00  E= 8.762652D-02  Symmetry=a

 Vector   11  Occ=0.000000D+00  E= 2.390542D-01  Symmetry=a

 Vector   12  Occ=0.000000D+00  E= 2.779065D-01  Symmetry=a

 Vector   13  Occ=0.000000D+00  E= 3.157441D-01  Symmetry=a

 Vector   14  Occ=0.000000D+00  E= 4.916170D-01  Symmetry=a

 Vector   15  Occ=0.000000D+00  E= 5.022103D-01  Symmetry=a

 Vector   16  Occ=0.000000D+00  E= 6.112841D-01  Symmetry=a

 Vector   17  Occ=0.000000D+00  E= 9.856384D-01  Symmetry=a

 Vector   18  Occ=0.000000D+00  E= 1.038392D+00  Symmetry=a

         Total SCF energy =    -76.050268737261

 Vector    2  Occ=2.000000D+00  E=-1.364621D+00

 Vector    3  Occ=2.000000D+00  E=-7.605377D-01

 Vector    4  Occ=2.000000D+00  E=-5.939716D-01

 Vector    5  Occ=2.000000D+00  E=-5.329150D-01

 Vector    6  Occ=0.000000D+00  E=-2.610114D-02

 Vector    7  Occ=0.000000D+00  E=-2.409495D-02

 Vector    8  Occ=0.000000D+00  E=-1.697521D-02

 Vector    9  Occ=0.000000D+00  E= 7.067605D-02

 Vector   10  Occ=0.000000D+00  E= 8.762652D-02

 Vector   11  Occ=0.000000D+00  E= 2.390542D-01

 Vector   12  Occ=0.000000D+00  E= 2.779065D-01

 Vector   13  Occ=0.000000D+00  E= 3.157441D-01

 Vector   14  Occ=0.000000D+00  E= 4.916170D-01

 Vector   15  Occ=0.000000D+00  E= 5.022103D-01

       Multipole analysis of the density wrt the origin
       ------------------------------------------------

     L   x y z        total         open         nuclear
     -   - - -        -----         ----         -------
     0   0 0 0     -0.000000      0.000000     10.000000

     1   1 0 0      0.669193      0.000000     -0.000000
     1   0 1 0      0.446251      0.000000      0.000000
     1   0 0 1     -0.000000      0.000000      0.000000

     2   2 0 0     -4.237680      0.000000      2.679864
     2   1 1 0     -0.863882      0.000000     -1.312668
     2   1 0 1      0.000000      0.000000      0.000000
     2   0 2 0     -3.672453      0.000000      3.426873
     2   0 1 1      0.000000      0.000000      0.000000

 CCSD total energy / hartree       =       -76.298332248299573
 Total times  cpu:       54.3s     wall:       57.2s
