============================== echo of input deck ==============================
 echo
 start H2O
 title "H2O"

 memory total 24 gb

 geometry units bohr
 symmetry c1
        O  0.00000000  0.00000000  0.00000000
        H  0.00000000  1.77892925  0.00000000
        H  1.72558000 -0.64860000  0.00000000
 end

 basis spherical
   * library 6-311++G**
 end

 mcscf
   active  8
   actelec 10
   multiplicity 1
   maxiter 40
   vectors input h2o.mos
   vectors output h2o.mos
 end

 task mcscf

 scf
   vectors input h2o.mos
   vectors output h2o-trash.mos
   noscf
 end

 tce
   2eorb
   2emet 13
   ccsd
   maxiter 300
 end

# set tce:print_integrals T
# set tce:qorb 8
# set tce:qela 5
# set tce:qelb 5

 set tce:qducc T
 set tce:nactv 3
 set tce:nonhf T
 set tce:ducc_model 6

 set tce:printtol 0.02

 task tce
================================================================================

 Output coordinates in a.u. (scale by  1.000000000 to convert to a.u.)

  No.       Tag          Charge          X              Y              Z
 ---- ---------------- ---------- -------------- -------------- --------------
    1 O                    8.0000    -0.17255800    -0.11303293     0.00000000
    2 H                    1.0000    -0.17255800     1.66589633     0.00000000
    3 H                    1.0000     1.55302200    -0.76163293     0.00000000

 Vector    1  Occ=1.999989D+00  E=-2.055806D+01  Symmetry=a

 Vector    2  Occ=1.998953D+00  E=-1.363302D+00  Symmetry=a

 Vector    3  Occ=1.981059D+00  E=-7.591998D-01  Symmetry=a

 Vector    4  Occ=1.978334D+00  E=-5.936061D-01  Symmetry=a

 Vector    5  Occ=1.976594D+00  E=-5.327088D-01  Symmetry=a

 Vector    6  Occ=2.419119D-02  E=-2.613210D-02  Symmetry=a

 Vector    7  Occ=2.224387D-02  E=-2.426964D-02  Symmetry=a

 Vector    8  Occ=1.863428D-02  E=-1.697960D-02  Symmetry=a

 Vector    9  Occ=0.000000D+00  E= 7.074785D-02  Symmetry=a

 Vector   10  Occ=0.000000D+00  E= 8.762528D-02  Symmetry=a

 Vector   11  Occ=0.000000D+00  E= 2.389011D-01  Symmetry=a

 Vector   12  Occ=0.000000D+00  E= 2.779135D-01  Symmetry=a

 Vector   13  Occ=0.000000D+00  E= 3.158207D-01  Symmetry=a

 Vector   14  Occ=0.000000D+00  E= 4.915671D-01  Symmetry=a

 Vector   15  Occ=0.000000D+00  E= 5.018036D-01  Symmetry=a

 Vector   16  Occ=0.000000D+00  E= 6.119727D-01  Symmetry=a

 Vector   17  Occ=0.000000D+00  E= 9.873630D-01  Symmetry=a

 Vector   18  Occ=0.000000D+00  E= 1.039054D+00  Symmetry=a

         Total SCF energy =    -76.050270621355

 Vector    2  Occ=2.000000D+00  E=-1.363302D+00

 Vector    3  Occ=2.000000D+00  E=-7.591998D-01

 Vector    4  Occ=2.000000D+00  E=-5.936061D-01

 Vector    5  Occ=2.000000D+00  E=-5.327088D-01

 Vector    6  Occ=0.000000D+00  E=-2.613210D-02

 Vector    7  Occ=0.000000D+00  E=-2.426964D-02

 Vector    8  Occ=0.000000D+00  E=-1.697960D-02

 Vector    9  Occ=0.000000D+00  E= 7.074785D-02

 Vector   10  Occ=0.000000D+00  E= 8.762528D-02

 Vector   11  Occ=0.000000D+00  E= 2.389011D-01

 Vector   12  Occ=0.000000D+00  E= 2.779135D-01

 Vector   13  Occ=0.000000D+00  E= 3.158207D-01

 Vector   14  Occ=0.000000D+00  E= 4.915671D-01

 Vector   15  Occ=0.000000D+00  E= 5.018036D-01

       Multipole analysis of the density wrt the origin
       ------------------------------------------------

     L   x y z        total         open         nuclear
     -   - - -        -----         ----         -------
     0   0 0 0     -0.000000      0.000000     10.000000

     1   1 0 0      0.668732      0.000000     -0.000000
     1   0 1 0      0.448126      0.000000      0.000000
     1   0 0 1     -0.000000      0.000000      0.000000

     2   2 0 0     -4.241975      0.000000      2.679864
     2   1 1 0     -0.864994      0.000000     -1.314259
     2   1 0 1      0.000000      0.000000      0.000000
     2   0 2 0     -3.665520      0.000000      3.457507
     2   0 1 1      0.000000      0.000000      0.000000

 CCSD total energy / hartree       =       -76.298499752056358
 Total times  cpu:       57.5s     wall:       60.6s
