============================== echo of input deck ==============================
 echo
 start H2O
 title "H2O"

 memory total 24 gb

 geometry units bohr
 symmetry c1
        O  0.00000000  0.00000000  0.00000000
        H  0.00000000  1.84345  0.00000000
        H  1.72558000 -0.64860000  0.00000000
 end

 basis spherical
   * library 6-311++G**
 end

 mcscf
   active  8
   actelec 10
   multiplicity 1
   maxiter 40
   vectors input h2o.mos
   vectors output h2o.mos
 end

 task mcscf

 scf
   vectors input h2o.mos
   vectors output h2o-trash.mos
   noscf
 end

 tce
   2eorb
   2emet 13
   ccsd
   maxiter 300
 end

# set tce:print_integrals T
# set tce:qorb 8
# set tce:qela 5
# set tce:qelb 5

 set tce:qducc T
 set tce:nactv 3
 set tce:nonhf T
 set tce:ducc_model 6

 set tce:printtol 0.02

 task tce
================================================================================

 Output coordinates in a.u. (scale by  1.000000000 to convert to a.u.)

  No.       Tag          Charge          X              Y              Z
 ---- ---------------- ---------- -------------- -------------- --------------
    1 O                    8.0000    -0.17255800    -0.11948500     0.00000000
    2 H                    1.0000    -0.17255800     1.72396500     0.00000000
    3 H                    1.0000     1.55302200    -0.76808500     0.00000000

 Vector    1  Occ=1.999990D+00  E=-2.056104D+01  Symmetry=a

 Vector    2  Occ=1.998900D+00  E=-1.354432D+00  Symmetry=a

 Vector    3  Occ=1.980704D+00  E=-7.499162D-01  Symmetry=a

 Vector    4  Occ=1.976440D+00  E=-5.915377D-01  Symmetry=a

 Vector    5  Occ=1.976246D+00  E=-5.308542D-01  Symmetry=a

 Vector    6  Occ=2.477713D-02  E=-2.634992D-02  Symmetry=a

 Vector    7  Occ=2.398173D-02  E=-2.521248D-02  Symmetry=a

 Vector    8  Occ=1.896131D-02  E=-1.702640D-02  Symmetry=a

 Vector    9  Occ=0.000000D+00  E= 7.124394D-02  Symmetry=a

 Vector   10  Occ=0.000000D+00  E= 8.470121D-02  Symmetry=a

 Vector   11  Occ=0.000000D+00  E= 2.381083D-01  Symmetry=a

 Vector   12  Occ=0.000000D+00  E= 2.776074D-01  Symmetry=a

 Vector   13  Occ=0.000000D+00  E= 3.155725D-01  Symmetry=a

 Vector   14  Occ=0.000000D+00  E= 4.922523D-01  Symmetry=a

 Vector   15  Occ=0.000000D+00  E= 5.036524D-01  Symmetry=a

 Vector   16  Occ=0.000000D+00  E= 6.197112D-01  Symmetry=a

 Vector   17  Occ=0.000000D+00  E= 9.930206D-01  Symmetry=a

 Vector   18  Occ=0.000000D+00  E= 1.046502D+00  Symmetry=a

         Total SCF energy =    -76.048874346534

 Vector    2  Occ=2.000000D+00  E=-1.354432D+00

 Vector    3  Occ=2.000000D+00  E=-7.499162D-01

 Vector    4  Occ=2.000000D+00  E=-5.915377D-01

 Vector    5  Occ=2.000000D+00  E=-5.308542D-01

 Vector    6  Occ=0.000000D+00  E=-2.634992D-02

 Vector    7  Occ=0.000000D+00  E=-2.521248D-02

 Vector    8  Occ=0.000000D+00  E=-1.702640D-02

 Vector    9  Occ=0.000000D+00  E= 7.124394D-02

 Vector   10  Occ=0.000000D+00  E= 8.470121D-02

 Vector   11  Occ=0.000000D+00  E= 2.381083D-01

 Vector   12  Occ=0.000000D+00  E= 2.776074D-01

 Vector   13  Occ=0.000000D+00  E= 3.155725D-01

 Vector   14  Occ=0.000000D+00  E= 4.922523D-01

 Vector   15  Occ=0.000000D+00  E= 5.036524D-01

       Multipole analysis of the density wrt the origin
       ------------------------------------------------

     L   x y z        total         open         nuclear
     -   - - -        -----         ----         -------
     0   0 0 0     -0.000000      0.000000     10.000000

     1   1 0 0      0.665579      0.000000     -0.000000
     1   0 1 0      0.460870      0.000000      0.000000
     1   0 0 1      0.000001      0.000000      0.000000

     2   2 0 0     -4.271552      0.000000      2.679864
     2   1 1 0     -0.872623      0.000000     -1.325392
     2   1 0 1      0.000018      0.000000      0.000000
     2   0 2 0     -3.615560      0.000000      3.676223
     2   0 1 1      0.000013      0.000000      0.000000

 CCSD total energy / hartree       =       -76.298275276240261
 Total times  cpu:       47.5s     wall:       48.5s
