============================== echo of input deck ==============================
 echo
 start H2O
 title "H2O"

 memory total 24 gb

 geometry units bohr
 symmetry c1
        O  0.00000000  0.00000000  0.00000000
        H  0.00000000  1.85266725  0.00000000
        H  1.72558000 -0.64860000  0.00000000
 end

 basis spherical
   * library 6-311++G**
 end

 mcscf
   active  8
   actelec 10
   multiplicity 1
   maxiter 40
   vectors input h2o.mos
   vectors output h2o.mos
 end

 task mcscf

 scf
   vectors input h2o.mos
   vectors output h2o-trash.mos
   noscf
 end

 tce
   2eorb
   2emet 13
   ccsd
   maxiter 300
 end

# set tce:print_integrals T
# set tce:qorb 8
# set tce:qela 5
# set tce:qelb 5

 set tce:qducc T
 set tce:nactv 3
 set tce:nonhf T
 set tce:ducc_model 6

 set tce:printtol 0.02

 task tce
================================================================================

 Output coordinates in a.u. (scale by  1.000000000 to convert to a.u.)

  No.       Tag          Charge          X              Y              Z
 ---- ---------------- ---------- -------------- -------------- --------------
    1 O                    8.0000    -0.17255800    -0.12040673     0.00000000
    2 H                    1.0000    -0.17255800     1.73226053     0.00000000
    3 H                    1.0000     1.55302200    -0.76900673     0.00000000

 Vector    1  Occ=1.999990D+00  E=-2.056134D+01  Symmetry=a

 Vector    2  Occ=1.998892D+00  E=-1.353391D+00  Symmetry=a

 Vector    3  Occ=1.980653D+00  E=-7.486924D-01  Symmetry=a

 Vector    4  Occ=1.976339D+00  E=-5.906008D-01  Symmetry=a

 Vector    5  Occ=1.976010D+00  E=-5.311208D-01  Symmetry=a

 Vector    6  Occ=2.497943D-02  E=-2.669783D-02  Symmetry=a

 Vector    7  Occ=2.412883D-02  E=-2.536140D-02  Symmetry=a

 Vector    8  Occ=1.900812D-02  E=-1.700259D-02  Symmetry=a

 Vector    9  Occ=0.000000D+00  E= 7.121501D-02  Symmetry=a

 Vector   10  Occ=0.000000D+00  E= 8.756844D-02  Symmetry=a

 Vector   11  Occ=0.000000D+00  E= 2.379363D-01  Symmetry=a

 Vector   12  Occ=0.000000D+00  E= 2.780085D-01  Symmetry=a

 Vector   13  Occ=0.000000D+00  E= 3.163974D-01  Symmetry=a

 Vector   14  Occ=0.000000D+00  E= 4.903204D-01  Symmetry=a

 Vector   15  Occ=0.000000D+00  E= 4.994043D-01  Symmetry=a

 Vector   16  Occ=0.000000D+00  E= 6.169492D-01  Symmetry=a

 Vector   17  Occ=0.000000D+00  E= 9.985519D-01  Symmetry=a

 Vector   18  Occ=0.000000D+00  E= 1.046327D+00  Symmetry=a

         Total SCF energy =    -76.048491537003

 Vector    2  Occ=2.000000D+00  E=-1.353391D+00

 Vector    3  Occ=2.000000D+00  E=-7.486924D-01

 Vector    4  Occ=2.000000D+00  E=-5.906008D-01

 Vector    5  Occ=2.000000D+00  E=-5.311208D-01

 Vector    6  Occ=0.000000D+00  E=-2.669783D-02

 Vector    7  Occ=0.000000D+00  E=-2.536140D-02

 Vector    8  Occ=0.000000D+00  E=-1.700259D-02

 Vector    9  Occ=0.000000D+00  E= 7.121501D-02

 Vector   10  Occ=0.000000D+00  E= 8.756844D-02

 Vector   11  Occ=0.000000D+00  E= 2.379363D-01

 Vector   12  Occ=0.000000D+00  E= 2.780085D-01

 Vector   13  Occ=0.000000D+00  E= 3.163974D-01

 Vector   14  Occ=0.000000D+00  E= 4.903204D-01

 Vector   15  Occ=0.000000D+00  E= 4.994043D-01

 Vector   16  Occ=0.000000D+00  E= 6.169492D-01

       Multipole analysis of the density wrt the origin
       ------------------------------------------------

     L   x y z        total         open         nuclear
     -   - - -        -----         ----         -------
     0   0 0 0     -0.000000      0.000000     10.000000

     1   1 0 0      0.665132      0.000000     -0.000000
     1   0 1 0      0.462619      0.000000      0.000000
     1   0 0 1     -0.000004      0.000000      0.000000

     2   2 0 0     -4.275722      0.000000      2.679864
     2   1 1 0     -0.873683      0.000000     -1.326983
     2   1 0 1      0.000001      0.000000      0.000000
     2   0 2 0     -3.608255      0.000000      3.708080
     2   0 1 1      0.000001      0.000000      0.000000

 CCSD total energy / hartree       =       -76.298062944267343
 Total times  cpu:       69.1s     wall:       71.9s
