============================== echo of input deck ==============================
 echo
 start H2O
 title "H2O"

 memory total 24 gb

 geometry units bohr
 symmetry c1
        O  0.00000000  0.00000000  0.00000000
        H  0.00000000  1.87110175  0.00000000
        H  1.72558000 -0.64860000  0.00000000
 end

 basis spherical
   * library 6-311++G**
 end

 mcscf
   active  8
   actelec 10
   multiplicity 1
   maxiter 40
   vectors input h2o.mos
   vectors output h2o.mos
 end

 task mcscf

 scf
   vectors input h2o.mos
   vectors output h2o-trash.mos
   noscf
 end

 tce
   2eorb
   2emet 13
   ccsd
   maxiter 300
 end

# set tce:print_integrals T
# set tce:qorb 8
# set tce:qela 5
# set tce:qelb 5

 set tce:qducc T
 set tce:nactv 3
 set tce:nonhf T
 set tce:ducc_model 6

 set tce:printtol 0.02

 task tce
================================================================================

 Output coordinates in a.u. (scale by  1.000000000 to convert to a.u.)

  No.       Tag          Charge          X              Y              Z
 ---- ---------------- ---------- -------------- -------------- --------------
    1 O                    8.0000    -0.17255800    -0.12225018     0.00000000
    2 H                    1.0000    -0.17255800     1.74885158     0.00000000
    3 H                    1.0000     1.55302200    -0.77085018     0.00000000

 Vector    1  Occ=1.999990D+00  E=-2.056214D+01  Symmetry=a

 Vector    2  Occ=1.998876D+00  E=-1.351115D+00  Symmetry=a

 Vector    3  Occ=1.980554D+00  E=-7.461431D-01  Symmetry=a

 Vector    4  Occ=1.976245D+00  E=-5.898462D-01  Symmetry=a

 Vector    5  Occ=1.975416D+00  E=-5.307609D-01  Symmetry=a

 Vector    6  Occ=2.549667D-02  E=-2.698198D-02  Symmetry=a

 Vector    7  Occ=2.432244D-02  E=-2.551118D-02  Symmetry=a

 Vector    8  Occ=1.909911D-02  E=-1.700713D-02  Symmetry=a

 Vector    9  Occ=0.000000D+00  E= 7.134151D-02  Symmetry=a

 Vector   10  Occ=0.000000D+00  E= 8.755445D-02  Symmetry=a

 Vector   11  Occ=0.000000D+00  E= 2.377440D-01  Symmetry=a

 Vector   12  Occ=0.000000D+00  E= 2.780403D-01  Symmetry=a

 Vector   13  Occ=0.000000D+00  E= 3.165251D-01  Symmetry=a

 Vector   14  Occ=0.000000D+00  E= 4.898391D-01  Symmetry=a

 Vector   15  Occ=0.000000D+00  E= 4.991830D-01  Symmetry=a

 Vector   16  Occ=0.000000D+00  E= 6.183229D-01  Symmetry=a

 Vector   17  Occ=0.000000D+00  E= 1.000817D+00  Symmetry=a

 Vector   18  Occ=0.000000D+00  E= 1.048823D+00  Symmetry=a

         Total SCF energy =    -76.047606080765

 Vector    2  Occ=2.000000D+00  E=-1.351115D+00

 Vector    3  Occ=2.000000D+00  E=-7.461431D-01

 Vector    4  Occ=2.000000D+00  E=-5.898462D-01

 Vector    5  Occ=2.000000D+00  E=-5.307609D-01

 Vector    6  Occ=0.000000D+00  E=-2.698198D-02

 Vector    7  Occ=0.000000D+00  E=-2.551118D-02

 Vector    8  Occ=0.000000D+00  E=-1.700713D-02

 Vector    9  Occ=0.000000D+00  E= 7.134151D-02

 Vector   10  Occ=0.000000D+00  E= 8.755445D-02

 Vector   11  Occ=0.000000D+00  E= 2.377440D-01

 Vector   12  Occ=0.000000D+00  E= 2.780403D-01

 Vector   13  Occ=0.000000D+00  E= 3.165251D-01

 Vector   14  Occ=0.000000D+00  E= 4.898391D-01

 Vector   15  Occ=0.000000D+00  E= 4.991830D-01

 Vector   16  Occ=0.000000D+00  E= 6.183229D-01

       Multipole analysis of the density wrt the origin
       ------------------------------------------------

     L   x y z        total         open         nuclear
     -   - - -        -----         ----         -------
     0   0 0 0     -0.000000      0.000000     10.000000

     1   1 0 0      0.664252      0.000000     -0.000000
     1   0 1 0      0.466088      0.000000      0.000000
     1   0 0 1     -0.000002      0.000000      0.000000

     2   2 0 0     -4.283974      0.000000      2.679864
     2   1 1 0     -0.875792      0.000000     -1.330164
     2   1 0 1      0.000002      0.000000      0.000000
     2   0 2 0     -3.593489      0.000000      3.772253
     2   0 1 1      0.000002      0.000000      0.000000

 CCSD total energy / hartree       =       -76.297518240140931
 Total times  cpu:       51.1s     wall:       54.1s
