============================== echo of input deck ==============================
 echo
 start H2O
 title "H2O"

 memory total 24 gb

 geometry units bohr
 symmetry c1
        O  0.00000000  0.00000000  0.00000000
        H  0.00000000  1.8987535  0.00000000
        H  1.72558000 -0.64860000  0.00000000
 end

 basis spherical
   * library 6-311++G**
 end

 mcscf
   active  8
   actelec 10
   multiplicity 1
   maxiter 40
   vectors input h2o.mos
   vectors output h2o.mos
 end

 task mcscf

 scf
   vectors input h2o.mos
   vectors output h2o-trash.mos
   noscf
 end

 tce
   2eorb
   2emet 13
   ccsd
   maxiter 300
 end

# set tce:print_integrals T
# set tce:qorb 8
# set tce:qela 5
# set tce:qelb 5

 set tce:qducc T
 set tce:nactv 3
 set tce:nonhf T
 set tce:ducc_model 6

 set tce:printtol 0.02

 task tce
================================================================================

 Output coordinates in a.u. (scale by  1.000000000 to convert to a.u.)

  No.       Tag          Charge          X              Y              Z
 ---- ---------------- ---------- -------------- -------------- --------------
    1 O                    8.0000    -0.17255800    -0.12501535     0.00000000
    2 H                    1.0000    -0.17255800     1.77373815     0.00000000
    3 H                    1.0000     1.55302200    -0.77361535     0.00000000

 Vector    1  Occ=1.999990D+00  E=-2.056330D+01  Symmetry=a

 Vector    2  Occ=1.998852D+00  E=-1.347832D+00  Symmetry=a

 Vector    3  Occ=1.980407D+00  E=-7.423718D-01  Symmetry=a

 Vector    4  Occ=1.976129D+00  E=-5.886963D-01  Symmetry=a

 Vector    5  Occ=1.974469D+00  E=-5.302409D-01  Symmetry=a

 Vector    6  Occ=2.641660D-02  E=-2.749694D-02  Symmetry=a

 Vector    7  Occ=2.450294D-02  E=-2.565647D-02  Symmetry=a

 Vector    8  Occ=1.923359D-02  E=-1.701148D-02  Symmetry=a

 Vector    9  Occ=0.000000D+00  E= 7.152678D-02  Symmetry=a

 Vector   10  Occ=0.000000D+00  E= 8.753207D-02  Symmetry=a

 Vector   11  Occ=0.000000D+00  E= 2.374919D-01  Symmetry=a

 Vector   12  Occ=0.000000D+00  E= 2.780953D-01  Symmetry=a

 Vector   13  Occ=0.000000D+00  E= 3.167095D-01  Symmetry=a

 Vector   14  Occ=0.000000D+00  E= 4.890423D-01  Symmetry=a

 Vector   15  Occ=0.000000D+00  E= 4.990047D-01  Symmetry=a

 Vector   16  Occ=0.000000D+00  E= 6.203530D-01  Symmetry=a

 Vector   17  Occ=0.000000D+00  E= 1.003756D+00  Symmetry=a

 Vector   18  Occ=0.000000D+00  E= 1.053027D+00  Symmetry=a

         Total SCF energy =    -76.045993466760

 Vector    2  Occ=2.000000D+00  E=-1.347832D+00

 Vector    3  Occ=2.000000D+00  E=-7.423718D-01

 Vector    4  Occ=2.000000D+00  E=-5.886963D-01

 Vector    5  Occ=2.000000D+00  E=-5.302409D-01

 Vector    6  Occ=0.000000D+00  E=-2.749694D-02

 Vector    7  Occ=0.000000D+00  E=-2.565647D-02

 Vector    8  Occ=0.000000D+00  E=-1.701148D-02

 Vector    9  Occ=0.000000D+00  E= 7.152678D-02

 Vector   10  Occ=0.000000D+00  E= 8.753207D-02

 Vector   11  Occ=0.000000D+00  E= 2.374919D-01

 Vector   12  Occ=0.000000D+00  E= 2.780953D-01

 Vector   13  Occ=0.000000D+00  E= 3.167095D-01

 Vector   14  Occ=0.000000D+00  E= 4.890423D-01

 Vector   15  Occ=0.000000D+00  E= 4.990047D-01

 Vector   16  Occ=0.000000D+00  E= 6.203530D-01

       Multipole analysis of the density wrt the origin
       ------------------------------------------------

     L   x y z        total         open         nuclear
     -   - - -        -----         ----         -------
     0   0 0 0     -0.000000      0.000000     10.000000

     1   1 0 0      0.662951      0.000000     -0.000000
     1   0 1 0      0.471154      0.000000     -0.000000
     1   0 0 1     -0.000000      0.000000      0.000000

     2   2 0 0     -4.296205      0.000000      2.679864
     2   1 1 0     -0.878904      0.000000     -1.334935
     2   1 0 1      0.000000      0.000000      0.000000
     2   0 2 0     -3.571034      0.000000      3.869658
     2   0 1 1      0.000000      0.000000      0.000000

 CCSD total energy / hartree       =       -76.296420886383771
 Total times  cpu:       55.7s     wall:       58.3s
