============================== echo of input deck ==============================
 echo
 start H2O
 title "H2O"

 memory total 24 gb

 geometry units bohr
 symmetry c1
        O  0.00000000  0.00000000  0.00000000
        H  0.00000000  1.92640525  0.00000000
        H  1.72558000 -0.64860000  0.00000000
 end

 basis spherical
   * library 6-311++G**
 end

 mcscf
   active  8
   actelec 10
   multiplicity 1
   maxiter 40
   vectors input h2o.mos
   vectors output h2o.mos
 end

 task mcscf

 scf
   vectors input h2o.mos
   vectors output h2o-trash.mos
   noscf
 end

 tce
   2eorb
   2emet 13
   ccsd
   maxiter 300
 end

# set tce:print_integrals T
# set tce:qorb 8
# set tce:qela 5
# set tce:qelb 5

 set tce:qducc T
 set tce:nactv 3
 set tce:nonhf T
 set tce:ducc_model 6

 set tce:printtol 0.02

 task tce
================================================================================

 Output coordinates in a.u. (scale by  1.000000000 to convert to a.u.)

  No.       Tag          Charge          X              Y              Z
 ---- ---------------- ---------- -------------- -------------- --------------
    1 O                    8.0000    -0.17255800    -0.12778053     0.00000000
    2 H                    1.0000    -0.17255800     1.79862473     0.00000000
    3 H                    1.0000     1.55302200    -0.77638053     0.00000000

 Vector    1  Occ=1.999990D+00  E=-2.056443D+01  Symmetry=a

 Vector    2  Occ=1.998826D+00  E=-1.344704D+00  Symmetry=a

 Vector    3  Occ=1.980263D+00  E=-7.386703D-01  Symmetry=a

 Vector    4  Occ=1.976017D+00  E=-5.875281D-01  Symmetry=a

 Vector    5  Occ=1.973476D+00  E=-5.297461D-01  Symmetry=a

 Vector    6  Occ=2.741925D-02  E=-2.807855D-02  Symmetry=a

 Vector    7  Occ=2.464326D-02  E=-2.574707D-02  Symmetry=a

 Vector    8  Occ=1.936536D-02  E=-1.701346D-02  Symmetry=a

 Vector    9  Occ=0.000000D+00  E= 7.170620D-02  Symmetry=a

 Vector   10  Occ=0.000000D+00  E= 8.750684D-02  Symmetry=a

 Vector   11  Occ=0.000000D+00  E= 2.372772D-01  Symmetry=a

 Vector   12  Occ=0.000000D+00  E= 2.781582D-01  Symmetry=a

 Vector   13  Occ=0.000000D+00  E= 3.168856D-01  Symmetry=a

 Vector   14  Occ=0.000000D+00  E= 4.881979D-01  Symmetry=a

 Vector   15  Occ=0.000000D+00  E= 4.989596D-01  Symmetry=a

 Vector   16  Occ=0.000000D+00  E= 6.223668D-01  Symmetry=a

 Vector   17  Occ=0.000000D+00  E= 1.006198D+00  Symmetry=a

 Vector   18  Occ=0.000000D+00  E= 1.057721D+00  Symmetry=a

         Total SCF energy =    -76.044069315066

 Vector    2  Occ=2.000000D+00  E=-1.344704D+00

 Vector    3  Occ=2.000000D+00  E=-7.386703D-01

 Vector    4  Occ=2.000000D+00  E=-5.875281D-01

 Vector    5  Occ=2.000000D+00  E=-5.297461D-01

 Vector    6  Occ=0.000000D+00  E=-2.807855D-02

 Vector    7  Occ=0.000000D+00  E=-2.574707D-02

 Vector    8  Occ=0.000000D+00  E=-1.701346D-02

 Vector    9  Occ=0.000000D+00  E= 7.170620D-02

 Vector   10  Occ=0.000000D+00  E= 8.750684D-02

 Vector   11  Occ=0.000000D+00  E= 2.372772D-01

 Vector   12  Occ=0.000000D+00  E= 2.781582D-01

 Vector   13  Occ=0.000000D+00  E= 3.168856D-01

 Vector   14  Occ=0.000000D+00  E= 4.881979D-01

 Vector   15  Occ=0.000000D+00  E= 4.989596D-01

 Vector   16  Occ=0.000000D+00  E= 6.223668D-01

       Multipole analysis of the density wrt the origin
       ------------------------------------------------

     L   x y z        total         open         nuclear
     -   - - -        -----         ----         -------
     0   0 0 0     -0.000000      0.000000     10.000000

     1   1 0 0      0.661668      0.000000     -0.000000
     1   0 1 0      0.476053      0.000000      0.000000
     1   0 0 1     -0.000000      0.000000      0.000000

     2   2 0 0     -4.308266      0.000000      2.679864
     2   1 1 0     -0.881947      0.000000     -1.339707
     2   1 0 1      0.000000      0.000000      0.000000
     2   0 2 0     -3.548246      0.000000      3.968441
     2   0 1 1      0.000000      0.000000      0.000000

 CCSD total energy / hartree       =       -76.295017460009262
 Total times  cpu:       41.4s     wall:       44.0s
