============================== echo of input deck ==============================
 echo
 start H2O
 title "H2O"

 memory total 24 gb

 geometry units bohr
 symmetry c1
        O  0.00000000  0.00000000  0.00000000
        H  0.00000000  1.9356225  0.00000000
        H  1.72558000 -0.64860000  0.00000000
 end

 basis spherical
   * library 6-311++G**
 end

 mcscf
   active  8
   actelec 10
   multiplicity 1
   maxiter 40
   vectors input h2o.mos
   vectors output h2o.mos
 end

 task mcscf

 scf
   vectors input h2o.mos
   vectors output h2o-trash.mos
   noscf
 end

 tce
   2eorb
   2emet 13
   ccsd
   maxiter 300
 end

# set tce:print_integrals T
# set tce:qorb 8
# set tce:qela 5
# set tce:qelb 5

 set tce:qducc T
 set tce:nactv 3
 set tce:nonhf T
 set tce:ducc_model 6

 set tce:printtol 0.02

 task tce
================================================================================

 Output coordinates in a.u. (scale by  1.000000000 to convert to a.u.)

  No.       Tag          Charge          X              Y              Z
 ---- ---------------- ---------- -------------- -------------- --------------
    1 O                    8.0000    -0.17255800    -0.12870225     0.00000000
    2 H                    1.0000    -0.17255800     1.80692025     0.00000000
    3 H                    1.0000     1.55302200    -0.77730225     0.00000000

 Vector    1  Occ=1.999990D+00  E=-2.056481D+01  Symmetry=a

 Vector    2  Occ=1.998818D+00  E=-1.343695D+00  Symmetry=a

 Vector    3  Occ=1.980215D+00  E=-7.374526D-01  Symmetry=a

 Vector    4  Occ=1.975980D+00  E=-5.871344D-01  Symmetry=a

 Vector    5  Occ=1.973135D+00  E=-5.295869D-01  Symmetry=a

 Vector    6  Occ=2.776679D-02  E=-2.828216D-02  Symmetry=a

 Vector    7  Occ=2.468651D-02  E=-2.577029D-02  Symmetry=a

 Vector    8  Occ=1.940864D-02  E=-1.701359D-02  Symmetry=a

 Vector    9  Occ=0.000000D+00  E= 7.176486D-02  Symmetry=a

 Vector   10  Occ=0.000000D+00  E= 8.749790D-02  Symmetry=a

 Vector   11  Occ=0.000000D+00  E= 2.372130D-01  Symmetry=a

 Vector   12  Occ=0.000000D+00  E= 2.781808D-01  Symmetry=a

 Vector   13  Occ=0.000000D+00  E= 3.169427D-01  Symmetry=a

 Vector   14  Occ=0.000000D+00  E= 4.879134D-01  Symmetry=a

 Vector   15  Occ=0.000000D+00  E= 4.989660D-01  Symmetry=a

 Vector   16  Occ=0.000000D+00  E= 6.230340D-01  Symmetry=a

 Vector   17  Occ=0.000000D+00  E= 1.006917D+00  Symmetry=a

 Vector   18  Occ=0.000000D+00  E= 1.059380D+00  Symmetry=a

         Total SCF energy =    -76.043364150803

 Vector    2  Occ=2.000000D+00  E=-1.343695D+00

 Vector    3  Occ=2.000000D+00  E=-7.374526D-01

 Vector    4  Occ=2.000000D+00  E=-5.871344D-01

 Vector    5  Occ=2.000000D+00  E=-5.295869D-01

 Vector    6  Occ=0.000000D+00  E=-2.828216D-02

 Vector    7  Occ=0.000000D+00  E=-2.577029D-02

 Vector    8  Occ=0.000000D+00  E=-1.701359D-02

 Vector    9  Occ=0.000000D+00  E= 7.176486D-02

 Vector   10  Occ=0.000000D+00  E= 8.749790D-02

 Vector   11  Occ=0.000000D+00  E= 2.372130D-01

 Vector   12  Occ=0.000000D+00  E= 2.781808D-01

 Vector   13  Occ=0.000000D+00  E= 3.169427D-01

 Vector   14  Occ=0.000000D+00  E= 4.879134D-01

 Vector   15  Occ=0.000000D+00  E= 4.989660D-01

 Vector   16  Occ=0.000000D+00  E= 6.230340D-01

       Multipole analysis of the density wrt the origin
       ------------------------------------------------

     L   x y z        total         open         nuclear
     -   - - -        -----         ----         -------
     0   0 0 0     -0.000000      0.000000     10.000000

     1   1 0 0      0.661244      0.000000     -0.000000
     1   0 1 0      0.477647      0.000000      0.000000
     1   0 0 1     -0.000000      0.000000      0.000000

     2   2 0 0     -4.312247      0.000000      2.679864
     2   1 1 0     -0.882944      0.000000     -1.341297
     2   1 0 1      0.000000      0.000000      0.000000
     2   0 2 0     -3.540582      0.000000      4.001674
     2   0 1 1      0.000000      0.000000      0.000000

 CCSD total energy / hartree       =       -76.294487146555895
 Total times  cpu:       49.1s     wall:       51.4s
