============================== echo of input deck ==============================
 echo
 start H2O
 title "H2O"

 memory total 24 gb

 geometry units bohr
 symmetry c1
        O  0.00000000  0.00000000  0.00000000
        H  0.00000000  1.9724915  0.00000000
        H  1.72558000 -0.64860000  0.00000000
 end

 basis spherical
   * library 6-311++G**
 end

 mcscf
   active  8
   actelec 10
   multiplicity 1
   maxiter 40
   vectors input h2o.mos
   vectors output h2o.mos
 end

 task mcscf

 scf
   vectors input h2o.mos
   vectors output h2o-trash.mos
   noscf
 end

 tce
   2eorb
   2emet 13
   ccsd
   maxiter 300
 end

# set tce:print_integrals T
# set tce:qorb 8
# set tce:qela 5
# set tce:qelb 5

 set tce:qducc T
 set tce:nactv 3
 set tce:nonhf T
 set tce:ducc_model 6

 set tce:printtol 0.02

 task tce
================================================================================

 Output coordinates in a.u. (scale by  1.000000000 to convert to a.u.)

  No.       Tag          Charge          X              Y              Z
 ---- ---------------- ---------- -------------- -------------- --------------
    1 O                    8.0000    -0.17255800    -0.13238915     0.00000000
    2 H                    1.0000    -0.17255800     1.84010235     0.00000000
    3 H                    1.0000     1.55302200    -0.78098915     0.00000000

 Vector    1  Occ=1.999990D+00  E=-2.056627D+01  Symmetry=a

 Vector    2  Occ=1.998783D+00  E=-1.339822D+00  Symmetry=a

 Vector    3  Occ=1.980029D+00  E=-7.326658D-01  Symmetry=a

 Vector    4  Occ=1.975832D+00  E=-5.855355D-01  Symmetry=a

 Vector    5  Occ=1.971720D+00  E=-5.289785D-01  Symmetry=a

 Vector    6  Occ=2.921660D-02  E=-2.913075D-02  Symmetry=a

 Vector    7  Occ=2.485111D-02  E=-2.584336D-02  Symmetry=a

 Vector    8  Occ=1.957833D-02  E=-1.701141D-02  Symmetry=a

 Vector    9  Occ=0.000000D+00  E= 7.199444D-02  Symmetry=a

 Vector   10  Occ=0.000000D+00  E= 8.746009D-02  Symmetry=a

 Vector   11  Occ=0.000000D+00  E= 2.369898D-01  Symmetry=a

 Vector   12  Occ=0.000000D+00  E= 2.782796D-01  Symmetry=a

 Vector   13  Occ=0.000000D+00  E= 3.171631D-01  Symmetry=a

 Vector   14  Occ=0.000000D+00  E= 4.867917D-01  Symmetry=a

 Vector   15  Occ=0.000000D+00  E= 4.990644D-01  Symmetry=a

 Vector   16  Occ=0.000000D+00  E= 6.256802D-01  Symmetry=a

 Vector   17  Occ=0.000000D+00  E= 1.009402D+00  Symmetry=a

 Vector   18  Occ=0.000000D+00  E= 1.066402D+00  Symmetry=a

         Total SCF energy =    -76.040253277377

 Vector    2  Occ=2.000000D+00  E=-1.339822D+00

 Vector    3  Occ=2.000000D+00  E=-7.326658D-01

 Vector    4  Occ=2.000000D+00  E=-5.855355D-01

 Vector    5  Occ=2.000000D+00  E=-5.289785D-01

 Vector    6  Occ=0.000000D+00  E=-2.913075D-02

 Vector    7  Occ=0.000000D+00  E=-2.584336D-02

 Vector    8  Occ=0.000000D+00  E=-1.701141D-02

 Vector    9  Occ=0.000000D+00  E= 7.199444D-02

 Vector   10  Occ=0.000000D+00  E= 8.746009D-02

 Vector   11  Occ=0.000000D+00  E= 2.369898D-01

 Vector   12  Occ=0.000000D+00  E= 2.782796D-01

 Vector   13  Occ=0.000000D+00  E= 3.171631D-01

 Vector   14  Occ=0.000000D+00  E= 4.867917D-01

 Vector   15  Occ=0.000000D+00  E= 4.990644D-01

 Vector   16  Occ=0.000000D+00  E= 6.256802D-01

       Multipole analysis of the density wrt the origin
       ------------------------------------------------

     L   x y z        total         open         nuclear
     -   - - -        -----         ----         -------
     0   0 0 0     -0.000000      0.000000     10.000000

     1   1 0 0      0.659568      0.000000     -0.000000
     1   0 1 0      0.483816      0.000000      0.000000
     1   0 0 1     -0.000000      0.000000      0.000000

     2   2 0 0     -4.327978      0.000000      2.679864
     2   1 1 0     -0.886849      0.000000     -1.347659
     2   1 0 1      0.000000      0.000000      0.000000
     2   0 2 0     -3.509624      0.000000      4.136136
     2   0 1 1      0.000000      0.000000      0.000000

 CCSD total energy / hartree       =       -76.292082410075565
 Total times  cpu:       43.9s     wall:       46.1s
