============================== echo of input deck ==============================
 echo
 start H2O
 title "H2O"

 memory total 24 gb

 geometry units bohr
 symmetry c1
        O  0.00000000  0.00000000  0.00000000
        H  0.00000000  2.064664  0.00000000
        H  1.72558000 -0.64860000  0.00000000
 end

 basis spherical
   * library 6-311++G**
 end

 mcscf
   active  8
   actelec 10
   multiplicity 1
   maxiter 40
   vectors input h2o.mos
   vectors output h2o.mos
 end

 task mcscf

 scf
   vectors input h2o.mos
   vectors output h2o-trash.mos
   noscf
 end

 tce
   2eorb
   2emet 13
   ccsd
   maxiter 300
 end

# set tce:print_integrals T
# set tce:qorb 8
# set tce:qela 5
# set tce:qelb 5

 set tce:qducc T
 set tce:nactv 3
 set tce:nonhf T
 set tce:ducc_model 6

 set tce:printtol 0.02

 task tce
================================================================================

 Output coordinates in a.u. (scale by  1.000000000 to convert to a.u.)

  No.       Tag          Charge          X              Y              Z
 ---- ---------------- ---------- -------------- -------------- --------------
    1 O                    8.0000    -0.17255800    -0.14160640     0.00000000
    2 H                    1.0000    -0.17255800     1.92305760     0.00000000
    3 H                    1.0000     1.55302200    -0.79020640     0.00000000

 Vector    1  Occ=1.999990D+00  E=-2.056977D+01  Symmetry=a

 Vector    2  Occ=1.998692D+00  E=-1.331221D+00  Symmetry=a

 Vector    3  Occ=1.979589D+00  E=-7.213315D-01  Symmetry=a

 Vector    4  Occ=1.975468D+00  E=-5.813469D-01  Symmetry=a

 Vector    5  Occ=1.967793D+00  E=-5.276638D-01  Symmetry=a

 Vector    6  Occ=3.325751D-02  E=-3.142620D-02  Symmetry=a

 Vector    7  Occ=2.523544D-02  E=-2.596387D-02  Symmetry=a

 Vector    8  Occ=1.997515D-02  E=-1.698708D-02  Symmetry=a

 Vector    9  Occ=0.000000D+00  E= 7.254981D-02  Symmetry=a

 Vector   10  Occ=0.000000D+00  E= 8.735978D-02  Symmetry=a

 Vector   11  Occ=0.000000D+00  E= 2.366230D-01  Symmetry=a

 Vector   12  Occ=0.000000D+00  E= 2.785823D-01  Symmetry=a

 Vector   13  Occ=0.000000D+00  E= 3.176677D-01  Symmetry=a

 Vector   14  Occ=0.000000D+00  E= 4.843576D-01  Symmetry=a

 Vector   15  Occ=0.000000D+00  E= 4.995589D-01  Symmetry=a

 Vector   16  Occ=0.000000D+00  E= 6.321759D-01  Symmetry=a

 Vector   17  Occ=0.000000D+00  E= 1.013865D+00  Symmetry=a

 Vector   18  Occ=0.000000D+00  E= 1.085804D+00  Symmetry=a

         Total SCF energy =    -76.030775305908

 Vector    2  Occ=2.000000D+00  E=-1.331221D+00

 Vector    3  Occ=2.000000D+00  E=-7.213315D-01

 Vector    4  Occ=2.000000D+00  E=-5.813469D-01

 Vector    5  Occ=2.000000D+00  E=-5.276638D-01

 Vector    6  Occ=0.000000D+00  E=-3.142620D-02

 Vector    7  Occ=0.000000D+00  E=-2.596387D-02

 Vector    8  Occ=0.000000D+00  E=-1.698708D-02

 Vector    9  Occ=0.000000D+00  E= 7.254981D-02

 Vector   10  Occ=0.000000D+00  E= 8.735978D-02

 Vector   11  Occ=0.000000D+00  E= 2.366230D-01

 Vector   12  Occ=0.000000D+00  E= 2.785823D-01

 Vector   13  Occ=0.000000D+00  E= 3.176677D-01

 Vector   14  Occ=0.000000D+00  E= 4.843576D-01

 Vector   15  Occ=0.000000D+00  E= 4.995589D-01

 Vector   16  Occ=0.000000D+00  E= 6.321759D-01

       Multipole analysis of the density wrt the origin
       ------------------------------------------------

     L   x y z        total         open         nuclear
     -   - - -        -----         ----         -------
     0   0 0 0     -0.000000      0.000000     10.000000

     1   1 0 0      0.655515      0.000000     -0.000000
     1   0 1 0      0.497625      0.000000      0.000000
     1   0 0 1     -0.000000      0.000000      0.000000

     2   2 0 0     -4.365857      0.000000      2.679864
     2   1 1 0     -0.895952      0.000000     -1.363564
     2   1 0 1      0.000000      0.000000      0.000000
     2   0 2 0     -3.430618      0.000000      4.482996
     2   0 1 1      0.000000      0.000000      0.000000

 CCSD total energy / hartree       =       -76.284421065510202
 Total times  cpu:       52.3s     wall:       53.8s
