============================== echo of input deck ==============================
 echo
 start H2O
 title "H2O"

 memory total 24 gb

 geometry units bohr
 symmetry c1
        O  0.00000000  0.00000000  0.00000000
        H  0.00000000  2.0830985  0.00000000
        H  1.72558000 -0.64860000  0.00000000
 end

 basis spherical
   * library 6-311++G**
 end

 mcscf
   active  8
   actelec 10
   multiplicity 1
   maxiter 40
   vectors input h2o.mos
   vectors output h2o.mos
 end

 task mcscf

 scf
   vectors input h2o.mos
   vectors output h2o-trash.mos
   noscf
 end

 tce
   2eorb
   2emet 13
   ccsd
   maxiter 300
 end

# set tce:print_integrals T
# set tce:qorb 8
# set tce:qela 5
# set tce:qelb 5

 set tce:qducc T
 set tce:nactv 3
 set tce:nonhf T
 set tce:ducc_model 6

 set tce:printtol 0.02

 task tce
================================================================================

 Output coordinates in a.u. (scale by  1.000000000 to convert to a.u.)

  No.       Tag          Charge          X              Y              Z
 ---- ---------------- ---------- -------------- -------------- --------------
    1 O                    8.0000    -0.17255800    -0.14344985     0.00000000
    2 H                    1.0000    -0.17255800     1.93964865     0.00000000
    3 H                    1.0000     1.55302200    -0.79204985     0.00000000

 Vector    1  Occ=1.999990D+00  E=-2.057044D+01  Symmetry=a

 Vector    2  Occ=1.998673D+00  E=-1.329674D+00  Symmetry=a

 Vector    3  Occ=1.979506D+00  E=-7.191797D-01  Symmetry=a

 Vector    4  Occ=1.975397D+00  E=-5.804715D-01  Symmetry=a

 Vector    5  Occ=1.966933D+00  E=-5.274358D-01  Symmetry=a

 Vector    6  Occ=3.414228D-02  E=-3.191005D-02  Symmetry=a

 Vector    7  Occ=2.530969D-02  E=-2.598313D-02  Symmetry=a

 Vector    8  Occ=2.004941D-02  E=-1.697889D-02  Symmetry=a

 Vector    9  Occ=0.000000D+00  E= 7.265564D-02  Symmetry=a

 Vector   10  Occ=0.000000D+00  E= 8.733861D-02  Symmetry=a

 Vector   11  Occ=0.000000D+00  E= 2.365758D-01  Symmetry=a

 Vector   12  Occ=0.000000D+00  E= 2.786511D-01  Symmetry=a

 Vector   13  Occ=0.000000D+00  E= 3.177620D-01  Symmetry=a

 Vector   14  Occ=0.000000D+00  E= 4.839470D-01  Symmetry=a

 Vector   15  Occ=0.000000D+00  E= 4.996640D-01  Symmetry=a

 Vector   16  Occ=0.000000D+00  E= 6.334221D-01  Symmetry=a

 Vector   17  Occ=0.000000D+00  E= 1.014576D+00  Symmetry=a

 Vector   18  Occ=0.000000D+00  E= 1.089854D+00  Symmetry=a

         Total SCF energy =    -76.028641063646

 Vector    2  Occ=2.000000D+00  E=-1.329674D+00

 Vector    3  Occ=2.000000D+00  E=-7.191797D-01

 Vector    4  Occ=2.000000D+00  E=-5.804715D-01

 Vector    5  Occ=2.000000D+00  E=-5.274358D-01

 Vector    6  Occ=0.000000D+00  E=-3.191005D-02

 Vector    7  Occ=0.000000D+00  E=-2.598313D-02

 Vector    8  Occ=0.000000D+00  E=-1.697889D-02

 Vector    9  Occ=0.000000D+00  E= 7.265564D-02

 Vector   10  Occ=0.000000D+00  E= 8.733861D-02

 Vector   11  Occ=0.000000D+00  E= 2.365758D-01

 Vector   12  Occ=0.000000D+00  E= 2.786511D-01

 Vector   13  Occ=0.000000D+00  E= 3.177620D-01

 Vector   14  Occ=0.000000D+00  E= 4.839470D-01

 Vector   15  Occ=0.000000D+00  E= 4.996640D-01

 Vector   16  Occ=0.000000D+00  E= 6.334221D-01

       Multipole analysis of the density wrt the origin
       ------------------------------------------------

     L   x y z        total         open         nuclear
     -   - - -        -----         ----         -------
     0   0 0 0     -0.000000      0.000000     10.000000

     1   1 0 0      0.654722      0.000000     -0.000000
     1   0 1 0      0.500089      0.000000      0.000000
     1   0 0 1     -0.000000      0.000000      0.000000

     2   2 0 0     -4.373193      0.000000      2.679864
     2   1 1 0     -0.897644      0.000000     -1.366745
     2   1 0 1      0.000000      0.000000      0.000000
     2   0 2 0     -3.414627      0.000000      4.554203
     2   0 1 1      0.000000      0.000000      0.000000

 CCSD total energy / hartree       =       -76.282660121860530
 Total times  cpu:       52.1s     wall:       53.8s
