============================== echo of input deck ==============================
 echo
 start H2O
 title "H2O"

 memory total 24 gb

 geometry units bohr
 symmetry c1
        O  0.00000000  0.00000000  0.00000000
        H  0.00000000  2.138402  0.00000000
        H  1.72558000 -0.64860000  0.00000000
 end

 basis spherical
   * library 6-311++G**
 end

 mcscf
   active  8
   actelec 10
   multiplicity 1
   maxiter 40
   vectors input h2o.mos
   vectors output h2o.mos
 end

 task mcscf

 scf
   vectors input h2o.mos
   vectors output h2o-trash.mos
   noscf
 end

 tce
   2eorb
   2emet 13
   ccsd
   maxiter 300
 end

# set tce:print_integrals T
# set tce:qorb 8
# set tce:qela 5
# set tce:qelb 5

 set tce:qducc T
 set tce:nactv 3
 set tce:nonhf T
 set tce:ducc_model 6

 set tce:printtol 0.02

 task tce
================================================================================

 Output coordinates in a.u. (scale by  1.000000000 to convert to a.u.)

  No.       Tag          Charge          X              Y              Z
 ---- ---------------- ---------- -------------- -------------- --------------
    1 O                    8.0000    -0.17255800    -0.14898020     0.00000000
    2 H                    1.0000    -0.17255800     1.98942180     0.00000000
    3 H                    1.0000     1.55302200    -0.79758020     0.00000000

 Vector    1  Occ=1.999990D+00  E=-2.057241D+01  Symmetry=a

 Vector    2  Occ=1.998615D+00  E=-1.325356D+00  Symmetry=a

 Vector    3  Occ=1.979268D+00  E=-7.129704D-01  Symmetry=a

 Vector    4  Occ=1.975185D+00  E=-5.777600D-01  Symmetry=a

 Vector    5  Occ=1.964187D+00  E=-5.268247D-01  Symmetry=a

 Vector    6  Occ=3.696559D-02  E=-3.341159D-02  Symmetry=a

 Vector    7  Occ=2.552793D-02  E=-2.603614D-02  Symmetry=a

 Vector    8  Occ=2.026063D-02  E=-1.694777D-02  Symmetry=a

 Vector    9  Occ=0.000000D+00  E= 7.296854D-02  Symmetry=a

 Vector   10  Occ=0.000000D+00  E= 8.727563D-02  Symmetry=a

 Vector   11  Occ=0.000000D+00  E= 2.364755D-01  Symmetry=a

 Vector   12  Occ=0.000000D+00  E= 2.788733D-01  Symmetry=a

 Vector   13  Occ=0.000000D+00  E= 3.180341D-01  Symmetry=a

 Vector   14  Occ=0.000000D+00  E= 4.828978D-01  Symmetry=a

 Vector   15  Occ=0.000000D+00  E= 4.999639D-01  Symmetry=a

 Vector   16  Occ=0.000000D+00  E= 6.370691D-01  Symmetry=a

 Vector   17  Occ=0.000000D+00  E= 1.016547D+00  Symmetry=a

 Vector   18  Occ=0.000000D+00  E= 1.102194D+00  Symmetry=a

         Total SCF energy =    -76.021862951142

 Vector    2  Occ=2.000000D+00  E=-1.325356D+00

 Vector    3  Occ=2.000000D+00  E=-7.129704D-01

 Vector    4  Occ=2.000000D+00  E=-5.777600D-01

 Vector    5  Occ=2.000000D+00  E=-5.268247D-01

 Vector    6  Occ=0.000000D+00  E=-3.341159D-02

 Vector    7  Occ=0.000000D+00  E=-2.603614D-02

 Vector    8  Occ=0.000000D+00  E=-1.694777D-02

 Vector    9  Occ=0.000000D+00  E= 7.296854D-02

 Vector   10  Occ=0.000000D+00  E= 8.727563D-02

 Vector   11  Occ=0.000000D+00  E= 2.364755D-01

 Vector   12  Occ=0.000000D+00  E= 2.788733D-01

 Vector   13  Occ=0.000000D+00  E= 3.180341D-01

 Vector   14  Occ=0.000000D+00  E= 4.828978D-01

 Vector   15  Occ=0.000000D+00  E= 4.999639D-01

 Vector   16  Occ=0.000000D+00  E= 6.370691D-01

       Multipole analysis of the density wrt the origin
       ------------------------------------------------

     L   x y z        total         open         nuclear
     -   - - -        -----         ----         -------
     0   0 0 0     -0.000000      0.000000     10.000000

     1   1 0 0      0.652384      0.000000     -0.000000
     1   0 1 0      0.506819      0.000000      0.000000
     1   0 0 1     -0.000000      0.000000      0.000000

     2   2 0 0     -4.394685      0.000000      2.679864
     2   1 1 0     -0.902440      0.000000     -1.376288
     2   1 0 1      0.000000      0.000000      0.000000
     2   0 2 0     -3.366507      0.000000      4.771494
     2   0 1 1      0.000000      0.000000      0.000000

 CCSD total energy / hartree       =       -76.277023784143168
 Total times  cpu:       53.5s     wall:       55.1s
