============================== echo of input deck ==============================
 echo
 start H2O
 title "H2O"

 memory total 24 gb

 geometry units bohr
 symmetry c1
        O  0.00000000  0.00000000  0.00000000
        H  0.00000000  2.16605375  0.00000000
        H  1.72558000 -0.64860000  0.00000000
 end

 basis spherical
   * library 6-311++G**
 end

 mcscf
   active  8
   actelec 10
   multiplicity 1
   maxiter 40
   vectors input h2o.mos
   vectors output h2o.mos
 end

 task mcscf

 scf
   vectors input h2o.mos
   vectors output h2o-trash.mos
   noscf
 end

 tce
   2eorb
   2emet 13
   ccsd
   maxiter 300
 end

# set tce:print_integrals T
# set tce:qorb 8
# set tce:qela 5
# set tce:qelb 5

 set tce:qducc T
 set tce:nactv 3
 set tce:nonhf T
 set tce:ducc_model 6

 set tce:printtol 0.02

 task tce
================================================================================

 Output coordinates in a.u. (scale by  1.000000000 to convert to a.u.)

  No.       Tag          Charge          X              Y              Z
 ---- ---------------- ---------- -------------- -------------- --------------
    1 O                    8.0000    -0.17255800    -0.15174538     0.00000000
    2 H                    1.0000    -0.17255800     2.01430838     0.00000000
    3 H                    1.0000     1.55302200    -0.80034538     0.00000000

 Vector    1  Occ=1.999990D+00  E=-2.057337D+01  Symmetry=a

 Vector    2  Occ=1.998586D+00  E=-1.323371D+00  Symmetry=a

 Vector    3  Occ=1.979156D+00  E=-7.100089D-01  Symmetry=a

 Vector    4  Occ=1.975082D+00  E=-5.763531D-01  Symmetry=a

 Vector    5  Occ=1.962713D+00  E=-5.265606D-01  Symmetry=a

 Vector    6  Occ=3.847898D-02  E=-3.419149D-02  Symmetry=a

 Vector    7  Occ=2.563446D-02  E=-2.606062D-02  Symmetry=a

 Vector    8  Occ=2.035934D-02  E=-1.692854D-02  Symmetry=a

 Vector    9  Occ=0.000000D+00  E= 7.312302D-02  Symmetry=a

 Vector   10  Occ=0.000000D+00  E= 8.724485D-02  Symmetry=a

 Vector   11  Occ=0.000000D+00  E= 2.364458D-01  Symmetry=a

 Vector   12  Occ=0.000000D+00  E= 2.789928D-01  Symmetry=a

 Vector   13  Occ=0.000000D+00  E= 3.181645D-01  Symmetry=a

 Vector   14  Occ=0.000000D+00  E= 4.824776D-01  Symmetry=a

 Vector   15  Occ=0.000000D+00  E= 5.000977D-01  Symmetry=a

 Vector   16  Occ=0.000000D+00  E= 6.388359D-01  Symmetry=a

 Vector   17  Occ=0.000000D+00  E= 1.017479D+00  Symmetry=a

 Vector   18  Occ=0.000000D+00  E= 1.108433D+00  Symmetry=a

         Total SCF energy =    -76.018292526461

 Vector    2  Occ=2.000000D+00  E=-1.323371D+00

 Vector    3  Occ=2.000000D+00  E=-7.100089D-01

 Vector    4  Occ=2.000000D+00  E=-5.763531D-01

 Vector    5  Occ=2.000000D+00  E=-5.265606D-01

 Vector    6  Occ=0.000000D+00  E=-3.419149D-02

 Vector    7  Occ=0.000000D+00  E=-2.606062D-02

 Vector    8  Occ=0.000000D+00  E=-1.692854D-02

 Vector    9  Occ=0.000000D+00  E= 7.312302D-02

 Vector   10  Occ=0.000000D+00  E= 8.724485D-02

 Vector   11  Occ=0.000000D+00  E= 2.364458D-01

 Vector   12  Occ=0.000000D+00  E= 2.789928D-01

 Vector   13  Occ=0.000000D+00  E= 3.181645D-01

 Vector   14  Occ=0.000000D+00  E= 4.824776D-01

 Vector   15  Occ=0.000000D+00  E= 5.000977D-01

       Multipole analysis of the density wrt the origin
       ------------------------------------------------

     L   x y z        total         open         nuclear
     -   - - -        -----         ----         -------
     0   0 0 0     -0.000000      0.000000     10.000000

     1   1 0 0      0.651239      0.000000     -0.000000
     1   0 1 0      0.509791      0.000000      0.000000
     1   0 0 1     -0.000000      0.000000      0.000000

     2   2 0 0     -4.405135      0.000000      2.679864
     2   1 1 0     -0.904674      0.000000     -1.381060
     2   1 0 1      0.000000      0.000000      0.000000
     2   0 2 0     -3.342444      0.000000      4.882204
     2   0 1 1      0.000000      0.000000      0.000000

 CCSD total energy / hartree       =       -76.274037347195147
 Total times  cpu:       51.9s     wall:       53.5s
