============================== echo of input deck ==============================
 echo
 start H2O
 title "H2O"

 memory total 24 gb

 geometry units bohr
 symmetry c1
        O  0.00000000  0.00000000  0.00000000
        H  0.00000000  2.18448825  0.00000000
        H  1.72558000 -0.64860000  0.00000000
 end

 basis spherical
   * library 6-311++G**
 end

 mcscf
   active  8
   actelec 10
   multiplicity 1
   maxiter 40
   vectors input h2o.mos
   vectors output h2o.mos
 end

 task mcscf

 scf
   vectors input h2o.mos
   vectors output h2o-trash.mos
   noscf
 end

 tce
   2eorb
   2emet 13
   ccsd
   maxiter 300
 end

# set tce:print_integrals T
# set tce:qorb 8
# set tce:qela 5
# set tce:qelb 5

 set tce:qducc T
 set tce:nactv 3
 set tce:nonhf T
 set tce:ducc_model 6

 set tce:printtol 0.02

 task tce
================================================================================

 Output coordinates in a.u. (scale by  1.000000000 to convert to a.u.)

  No.       Tag          Charge          X              Y              Z
 ---- ---------------- ---------- -------------- -------------- --------------
    1 O                    8.0000    -0.17255800    -0.15358883     0.00000000
    2 H                    1.0000    -0.17255800     2.03089943     0.00000000
    3 H                    1.0000     1.55302200    -0.80218883     0.00000000

 Vector    1  Occ=1.999990D+00  E=-2.057401D+01  Symmetry=a

 Vector    2  Occ=1.998566D+00  E=-1.322110D+00  Symmetry=a

 Vector    3  Occ=1.979085D+00  E=-7.080891D-01  Symmetry=a

 Vector    4  Occ=1.975014D+00  E=-5.753950D-01  Symmetry=a

 Vector    5  Occ=1.961690D+00  E=-5.264001D-01  Symmetry=a

 Vector    6  Occ=3.952827D-02  E=-3.472272D-02  Symmetry=a

 Vector    7  Occ=2.570447D-02  E=-2.607635D-02  Symmetry=a

 Vector    8  Occ=2.042243D-02  E=-1.691437D-02  Symmetry=a

 Vector    9  Occ=0.000000D+00  E= 7.322547D-02  Symmetry=a

 Vector   10  Occ=0.000000D+00  E= 8.722471D-02  Symmetry=a

 Vector   11  Occ=0.000000D+00  E= 2.364326D-01  Symmetry=a

 Vector   12  Occ=0.000000D+00  E= 2.790755D-01  Symmetry=a

 Vector   13  Occ=0.000000D+00  E= 3.182496D-01  Symmetry=a

 Vector   14  Occ=0.000000D+00  E= 4.822362D-01  Symmetry=a

 Vector   15  Occ=0.000000D+00  E= 5.001789D-01  Symmetry=a

 Vector   16  Occ=0.000000D+00  E= 6.399907D-01  Symmetry=a

 Vector   17  Occ=0.000000D+00  E= 1.018091D+00  Symmetry=a

 Vector   18  Occ=0.000000D+00  E= 1.112607D+00  Symmetry=a

         Total SCF energy =    -76.015855069422

 Vector    2  Occ=2.000000D+00  E=-1.322110D+00

 Vector    3  Occ=2.000000D+00  E=-7.080891D-01

 Vector    4  Occ=2.000000D+00  E=-5.753950D-01

 Vector    5  Occ=2.000000D+00  E=-5.264001D-01

 Vector    6  Occ=0.000000D+00  E=-3.472272D-02

 Vector    7  Occ=0.000000D+00  E=-2.607635D-02

 Vector    8  Occ=0.000000D+00  E=-1.691437D-02

 Vector    9  Occ=0.000000D+00  E= 7.322547D-02

 Vector   10  Occ=0.000000D+00  E= 8.722471D-02

 Vector   11  Occ=0.000000D+00  E= 2.364326D-01

 Vector   12  Occ=0.000000D+00  E= 2.790755D-01

 Vector   13  Occ=0.000000D+00  E= 3.182496D-01

 Vector   14  Occ=0.000000D+00  E= 4.822362D-01

 Vector   15  Occ=0.000000D+00  E= 5.001789D-01

       Multipole analysis of the density wrt the origin
       ------------------------------------------------

     L   x y z        total         open         nuclear
     -   - - -        -----         ----         -------
     0   0 0 0     -0.000000      0.000000     10.000000

     1   1 0 0      0.650484      0.000000     -0.000000
     1   0 1 0      0.511620      0.000000      0.000000
     1   0 0 1     -0.000000      0.000000      0.000000

     2   2 0 0     -4.411989      0.000000      2.679864
     2   1 1 0     -0.906098      0.000000     -1.384241
     2   1 0 1      0.000000      0.000000      0.000000
     2   0 2 0     -3.326431      0.000000      4.956776
     2   0 1 1      0.000000      0.000000      0.000000

 CCSD total energy / hartree       =       -76.271994376237529
 Total times  cpu:       50.3s     wall:       52.0s
