============================== echo of input deck ==============================
 echo
 start H2O
 title "H2O"

 memory total 24 gb

 geometry units bohr
 symmetry c1
        O  0.00000000  0.00000000  0.00000000
        H  0.00000000  2.1937055  0.00000000
        H  1.72558000 -0.64860000  0.00000000
 end

 basis spherical
   * library 6-311++G**
 end

 mcscf
   active  8
   actelec 10
   multiplicity 1
   maxiter 40
   vectors input h2o.mos
   vectors output h2o.mos
 end

 task mcscf

 scf
   vectors input h2o.mos
   vectors output h2o-trash.mos
   noscf
 end

 tce
   2eorb
   2emet 13
   ccsd
   maxiter 300
 end

# set tce:print_integrals T
# set tce:qorb 8
# set tce:qela 5
# set tce:qelb 5

 set tce:qducc T
 set tce:nactv 3
 set tce:nonhf T
 set tce:ducc_model 6

 set tce:printtol 0.02

 task tce
================================================================================

 Output coordinates in a.u. (scale by  1.000000000 to convert to a.u.)

  No.       Tag          Charge          X              Y              Z
 ---- ---------------- ---------- -------------- -------------- --------------
    1 O                    8.0000    -0.17255800    -0.15451055     0.00000000
    2 H                    1.0000    -0.17255800     2.03919495     0.00000000
    3 H                    1.0000     1.55302200    -0.80311055     0.00000000

 Vector    1  Occ=1.999990D+00  E=-2.057432D+01  Symmetry=a

 Vector    2  Occ=1.998556D+00  E=-1.321498D+00  Symmetry=a

 Vector    3  Occ=1.979050D+00  E=-7.071458D-01  Symmetry=a

 Vector    4  Occ=1.974980D+00  E=-5.749097D-01  Symmetry=a

 Vector    5  Occ=1.961167D+00  E=-5.263246D-01  Symmetry=a

 Vector    6  Occ=4.006551D-02  E=-3.499183D-02  Symmetry=a

 Vector    7  Occ=2.573917D-02  E=-2.608405D-02  Symmetry=a

 Vector    8  Occ=2.045314D-02  E=-1.690688D-02  Symmetry=a

 Vector    9  Occ=0.000000D+00  E= 7.327655D-02  Symmetry=a

 Vector   10  Occ=0.000000D+00  E= 8.721477D-02  Symmetry=a

 Vector   11  Occ=0.000000D+00  E= 2.364278D-01  Symmetry=a

 Vector   12  Occ=0.000000D+00  E= 2.791177D-01  Symmetry=a

 Vector   13  Occ=0.000000D+00  E= 3.182916D-01  Symmetry=a

 Vector   14  Occ=0.000000D+00  E= 4.821269D-01  Symmetry=a

 Vector   15  Occ=0.000000D+00  E= 5.002169D-01  Symmetry=a

 Vector   16  Occ=0.000000D+00  E= 6.405608D-01  Symmetry=a

 Vector   17  Occ=0.000000D+00  E= 1.018395D+00  Symmetry=a

 Vector   18  Occ=0.000000D+00  E= 1.114698D+00  Symmetry=a

         Total SCF energy =    -76.014620681503

 Vector    2  Occ=2.000000D+00  E=-1.321498D+00

 Vector    3  Occ=2.000000D+00  E=-7.071458D-01

 Vector    4  Occ=2.000000D+00  E=-5.749097D-01

 Vector    5  Occ=2.000000D+00  E=-5.263246D-01

 Vector    6  Occ=0.000000D+00  E=-3.499183D-02

 Vector    7  Occ=0.000000D+00  E=-2.608405D-02

 Vector    8  Occ=0.000000D+00  E=-1.690688D-02

 Vector    9  Occ=0.000000D+00  E= 7.327655D-02

 Vector   10  Occ=0.000000D+00  E= 8.721477D-02

 Vector   11  Occ=0.000000D+00  E= 2.364278D-01

 Vector   12  Occ=0.000000D+00  E= 2.791177D-01

 Vector   13  Occ=0.000000D+00  E= 3.182916D-01

 Vector   14  Occ=0.000000D+00  E= 4.821269D-01

 Vector   15  Occ=0.000000D+00  E= 5.002169D-01

       Multipole analysis of the density wrt the origin
       ------------------------------------------------

     L   x y z        total         open         nuclear
     -   - - -        -----         ----         -------
     0   0 0 0     -0.000000      0.000000     10.000000

     1   1 0 0      0.650110      0.000000     -0.000000
     1   0 1 0      0.512486      0.000000     -0.000000
     1   0 0 1     -0.000000      0.000000      0.000000

     2   2 0 0     -4.415383      0.000000      2.679864
     2   1 1 0     -0.906791      0.000000     -1.385832
     2   1 0 1      0.000000      0.000000      0.000000
     2   0 2 0     -3.318439      0.000000      4.994291
     2   0 1 1      0.000000      0.000000      0.000000

 CCSD total energy / hartree       =       -76.270958831751557
 Total times  cpu:       55.9s     wall:       57.4s
