============================== echo of input deck ==============================
 echo
 start H2O
 title "H2O"

 memory total 24 gb

 geometry units bohr
 symmetry c1
        O  0.00000000  0.00000000  0.00000000
        H  0.00000000  2.2674435  0.00000000
        H  1.72558000 -0.64860000  0.00000000
 end

 basis spherical
   * library 6-311++G**
 end

 mcscf
   active  8
   actelec 10
   multiplicity 1
   maxiter 40
   vectors input h2o.mos
   vectors output h2o.mos
 end

 task mcscf

 scf
   vectors input h2o.mos
   vectors output h2o-trash.mos
   noscf
 end

 tce
   2eorb
   2emet 13
   ccsd
   maxiter 300
 end

# set tce:print_integrals T
# set tce:qorb 8
# set tce:qela 5
# set tce:qelb 5

 set tce:qducc T
 set tce:nactv 3
 set tce:nonhf T
 set tce:ducc_model 6

 set tce:printtol 0.02

 task tce
================================================================================

 Output coordinates in a.u. (scale by  1.000000000 to convert to a.u.)

  No.       Tag          Charge          X              Y              Z
 ---- ---------------- ---------- -------------- -------------- --------------
    1 O                    8.0000    -0.17255800    -0.16188435     0.00000000
    2 H                    1.0000    -0.17255800     2.10555915     0.00000000
    3 H                    1.0000     1.55302200    -0.81048435     0.00000000

 Vector    1  Occ=1.999991D+00  E=-2.057678D+01  Symmetry=a

 Vector    2  Occ=1.998475D+00  E=-1.316989D+00  Symmetry=a

 Vector    3  Occ=1.978791D+00  E=-6.999896D-01  Symmetry=a

 Vector    4  Occ=1.974717D+00  E=-5.708613D-01  Symmetry=a

 Vector    5  Occ=1.956651D+00  E=-5.258051D-01  Symmetry=a

 Vector    6  Occ=4.468933D-02  E=-3.720912D-02  Symmetry=a

 Vector    7  Occ=2.600878D-02  E=-2.614070D-02  Symmetry=a

 Vector    8  Occ=2.067754D-02  E=-1.683866D-02  Symmetry=a

 Vector    9  Occ=0.000000D+00  E= 7.364993D-02  Symmetry=a

 Vector   10  Occ=0.000000D+00  E= 8.713211D-02  Symmetry=a

 Vector   11  Occ=0.000000D+00  E= 2.364345D-01  Symmetry=a

 Vector   12  Occ=0.000000D+00  E= 2.794613D-01  Symmetry=a

 Vector   13  Occ=0.000000D+00  E= 3.186066D-01  Symmetry=a

 Vector   14  Occ=0.000000D+00  E= 4.814413D-01  Symmetry=a

 Vector   15  Occ=0.000000D+00  E= 5.004392D-01  Symmetry=a

 Vector   16  Occ=0.000000D+00  E= 6.447229D-01  Symmetry=a

 Vector   17  Occ=0.000000D+00  E= 1.020724D+00  Symmetry=a

 Vector   18  Occ=0.000000D+00  E= 1.131104D+00  Symmetry=a

         Total SCF energy =    -76.004428324190

 Vector    2  Occ=2.000000D+00  E=-1.316989D+00

 Vector    3  Occ=2.000000D+00  E=-6.999896D-01

 Vector    4  Occ=2.000000D+00  E=-5.708613D-01

 Vector    5  Occ=2.000000D+00  E=-5.258051D-01

 Vector    6  Occ=0.000000D+00  E=-3.720912D-02

 Vector    7  Occ=0.000000D+00  E=-2.614070D-02

 Vector    8  Occ=0.000000D+00  E=-1.683866D-02

 Vector    9  Occ=0.000000D+00  E= 7.364993D-02

 Vector   10  Occ=0.000000D+00  E= 8.713211D-02

 Vector   11  Occ=0.000000D+00  E= 2.364345D-01

 Vector   12  Occ=0.000000D+00  E= 2.794613D-01

 Vector   13  Occ=0.000000D+00  E= 3.186066D-01

 Vector   14  Occ=0.000000D+00  E= 4.814413D-01

 Vector   15  Occ=0.000000D+00  E= 5.004392D-01

       Multipole analysis of the density wrt the origin
       ------------------------------------------------

     L   x y z        total         open         nuclear
     -   - - -        -----         ----         -------
     0   0 0 0     -0.000000      0.000000     10.000000

     1   1 0 0      0.647178      0.000000     -0.000000
     1   0 1 0      0.518258      0.000000     -0.000000
     1   0 0 1     -0.000000      0.000000      0.000000

     2   2 0 0     -4.441717      0.000000      2.679864
     2   1 1 0     -0.911824      0.000000     -1.398556
     2   1 0 1      0.000000      0.000000      0.000000
     2   0 2 0     -3.255016      0.000000      5.299917
     2   0 1 1      0.000000      0.000000      0.000000

 CCSD total energy / hartree       =       -76.262398501933987
 Total times  cpu:       50.4s     wall:       52.3s
