============================== echo of input deck ==============================
 echo
 start H2O
 title "H2O"

 memory total 24 gb

 geometry units bohr
 symmetry c1
        O  0.00000000  0.00000000  0.00000000
        H  0.00000000  2.285878  0.00000000
        H  1.72558000 -0.64860000  0.00000000
 end

 basis spherical
   * library 6-311++G**
 end

 mcscf
   active  8
   actelec 10
   multiplicity 1
   maxiter 40
   vectors input h2o.mos
   vectors output h2o.mos
 end

 task mcscf

 scf
   vectors input h2o.mos
   vectors output h2o-trash.mos
   noscf
 end

 tce
   2eorb
   2emet 13
   ccsd
   maxiter 300
 end

# set tce:print_integrals T
# set tce:qorb 8
# set tce:qela 5
# set tce:qelb 5

 set tce:qducc T
 set tce:nactv 3
 set tce:nonhf T
 set tce:ducc_model 6

 set tce:printtol 0.02

 task tce
================================================================================

 Output coordinates in a.u. (scale by  1.000000000 to convert to a.u.)

  No.       Tag          Charge          X              Y              Z
 ---- ---------------- ---------- -------------- -------------- --------------
    1 O                    8.0000    -0.17255800    -0.16372780     0.00000000
    2 H                    1.0000    -0.17255800     2.12215020     0.00000000
    3 H                    1.0000     1.55302200    -0.81232780     0.00000000

 Vector    1  Occ=1.999991D+00  E=-2.057740D+01  Symmetry=a

 Vector    2  Occ=1.998454D+00  E=-1.315980D+00  Symmetry=a

 Vector    3  Occ=1.978732D+00  E=-6.983207D-01  Symmetry=a

 Vector    4  Occ=1.974654D+00  E=-5.698067D-01  Symmetry=a

 Vector    5  Occ=1.955426D+00  E=-5.257143D-01  Symmetry=a

 Vector    6  Occ=4.594165D-02  E=-3.779487D-02  Symmetry=a

 Vector    7  Occ=2.607376D-02  E=-2.615431D-02  Symmetry=a

 Vector    8  Occ=2.072747D-02  E=-1.681886D-02  Symmetry=a

 Vector    9  Occ=0.000000D+00  E= 7.375138D-02  Symmetry=a

 Vector   10  Occ=0.000000D+00  E= 8.711460D-02  Symmetry=a

 Vector   11  Occ=0.000000D+00  E= 2.364445D-01  Symmetry=a

 Vector   12  Occ=0.000000D+00  E= 2.795551D-01  Symmetry=a

 Vector   13  Occ=0.000000D+00  E= 3.186843D-01  Symmetry=a

 Vector   14  Occ=0.000000D+00  E= 4.813668D-01  Symmetry=a

 Vector   15  Occ=0.000000D+00  E= 5.004780D-01  Symmetry=a

 Vector   16  Occ=0.000000D+00  E= 6.457668D-01  Symmetry=a

 Vector   17  Occ=0.000000D+00  E= 1.021343D+00  Symmetry=a

 Vector   18  Occ=0.000000D+00  E= 1.135288D+00  Symmetry=a

         Total SCF energy =    -76.001807249409

 Vector    2  Occ=2.000000D+00  E=-1.315980D+00

 Vector    3  Occ=2.000000D+00  E=-6.983207D-01

 Vector    4  Occ=2.000000D+00  E=-5.698067D-01

 Vector    5  Occ=2.000000D+00  E=-5.257143D-01

 Vector    6  Occ=0.000000D+00  E=-3.779487D-02

 Vector    7  Occ=0.000000D+00  E=-2.615431D-02

 Vector    8  Occ=0.000000D+00  E=-1.681886D-02

 Vector    9  Occ=0.000000D+00  E= 7.375138D-02

 Vector   10  Occ=0.000000D+00  E= 8.711460D-02

 Vector   11  Occ=0.000000D+00  E= 2.364445D-01

 Vector   12  Occ=0.000000D+00  E= 2.795551D-01

 Vector   13  Occ=0.000000D+00  E= 3.186843D-01

 Vector   14  Occ=0.000000D+00  E= 4.813668D-01

 Vector   15  Occ=0.000000D+00  E= 5.004780D-01

       Multipole analysis of the density wrt the origin
       ------------------------------------------------

     L   x y z        total         open         nuclear
     -   - - -        -----         ----         -------
     0   0 0 0     -0.000000      0.000000     10.000000

     1   1 0 0      0.646466      0.000000     -0.000000
     1   0 1 0      0.519353      0.000000     -0.000000
     1   0 0 1     -0.000000      0.000000      0.000000

     2   2 0 0     -4.448062      0.000000      2.679864
     2   1 1 0     -0.912941      0.000000     -1.401737
     2   1 0 1      0.000000      0.000000      0.000000
     2   0 2 0     -3.239396      0.000000      5.377852
     2   0 1 1      0.000000      0.000000      0.000000

 CCSD total energy / hartree       =       -76.260197325078423
 Total times  cpu:       53.9s     wall:       56.0s
