============================== echo of input deck ==============================
 echo
 start H2O
 title "H2O"

 memory total 24 gb

 geometry units bohr
 symmetry c1
        O  0.00000000  0.00000000  0.00000000
        H  0.00000000  2.3043125  0.00000000
        H  1.72558000 -0.64860000  0.00000000
 end

 basis spherical
   * library 6-311++G**
 end

 mcscf
   active  8
   actelec 10
   multiplicity 1
   maxiter 40
   vectors input h2o.mos
   vectors output h2o.mos
 end

 task mcscf

 scf
   vectors input h2o.mos
   vectors output h2o-trash.mos
   noscf
 end

 tce
   2eorb
   2emet 13
   ccsd
   maxiter 300
 end

# set tce:print_integrals T
# set tce:qorb 8
# set tce:qela 5
# set tce:qelb 5

 set tce:qducc T
 set tce:nactv 3
 set tce:nonhf T
 set tce:ducc_model 6

 set tce:printtol 0.02

 task tce
================================================================================

 Output coordinates in a.u. (scale by  1.000000000 to convert to a.u.)

  No.       Tag          Charge          X              Y              Z
 ---- ---------------- ---------- -------------- -------------- --------------
    1 O                    8.0000    -0.17255800    -0.16557125     0.00000000
    2 H                    1.0000    -0.17255800     2.13874125     0.00000000
    3 H                    1.0000     1.55302200    -0.81417125     0.00000000

 Vector    1  Occ=1.999991D+00  E=-2.057801D+01  Symmetry=a

 Vector    2  Occ=1.998434D+00  E=-1.315015D+00  Symmetry=a

 Vector    3  Occ=1.978676D+00  E=-6.966989D-01  Symmetry=a

 Vector    4  Occ=1.974592D+00  E=-5.687330D-01  Symmetry=a

 Vector    5  Occ=1.954159D+00  E=-5.256366D-01  Symmetry=a

 Vector    6  Occ=4.723574D-02  E=-3.839173D-02  Symmetry=a

 Vector    7  Occ=2.613772D-02  E=-2.616759D-02  Symmetry=a

 Vector    8  Occ=2.077482D-02  E=-1.679804D-02  Symmetry=a

 Vector    9  Occ=0.000000D+00  E= 7.385273D-02  Symmetry=a

 Vector   10  Occ=0.000000D+00  E= 8.709766D-02  Symmetry=a

 Vector   11  Occ=0.000000D+00  E= 2.364579D-01  Symmetry=a

 Vector   12  Occ=0.000000D+00  E= 2.796507D-01  Symmetry=a

 Vector   13  Occ=0.000000D+00  E= 3.187610D-01  Symmetry=a

 Vector   14  Occ=0.000000D+00  E= 4.813209D-01  Symmetry=a

 Vector   15  Occ=0.000000D+00  E= 5.005073D-01  Symmetry=a

 Vector   16  Occ=0.000000D+00  E= 6.467863D-01  Symmetry=a

 Vector   17  Occ=0.000000D+00  E= 1.021970D+00  Symmetry=a

 Vector   18  Occ=0.000000D+00  E= 1.139466D+00  Symmetry=a

         Total SCF energy =    -75.999162793436

 Vector    2  Occ=2.000000D+00  E=-1.315015D+00

 Vector    3  Occ=2.000000D+00  E=-6.966989D-01

 Vector    4  Occ=2.000000D+00  E=-5.687330D-01

 Vector    5  Occ=2.000000D+00  E=-5.256366D-01

 Vector    6  Occ=0.000000D+00  E=-3.839173D-02

 Vector    7  Occ=0.000000D+00  E=-2.616759D-02

 Vector    8  Occ=0.000000D+00  E=-1.679804D-02

 Vector    9  Occ=0.000000D+00  E= 7.385273D-02

 Vector   10  Occ=0.000000D+00  E= 8.709766D-02

 Vector   11  Occ=0.000000D+00  E= 2.364579D-01

 Vector   12  Occ=0.000000D+00  E= 2.796507D-01

 Vector   13  Occ=0.000000D+00  E= 3.187610D-01

 Vector   14  Occ=0.000000D+00  E= 4.813209D-01

 Vector   15  Occ=0.000000D+00  E= 5.005073D-01

       Multipole analysis of the density wrt the origin
       ------------------------------------------------

     L   x y z        total         open         nuclear
     -   - - -        -----         ----         -------
     0   0 0 0     -0.000000      0.000000     10.000000

     1   1 0 0      0.645761      0.000000     -0.000000
     1   0 1 0      0.520304      0.000000      0.000000
     1   0 0 1     -0.000000      0.000000      0.000000

     2   2 0 0     -4.454312      0.000000      2.679864
     2   1 1 0     -0.913997      0.000000     -1.404918
     2   1 0 1      0.000000      0.000000      0.000000
     2   0 2 0     -3.223895      0.000000      5.456400
     2   0 1 1      0.000000      0.000000      0.000000

 CCSD total energy / hartree       =       -76.257977877044624
 Total times  cpu:       52.7s     wall:       54.8s
