============================== echo of input deck ==============================
 echo
 start H2O
 title "H2O"

 memory total 24 gb

 geometry units bohr
 symmetry c1
        O  0.00000000  0.00000000  0.00000000
        H  0.00000000  2.322747  0.00000000
        H  1.72558000 -0.64860000  0.00000000
 end

 basis spherical
   * library 6-311++G**
 end

 mcscf
   active  8
   actelec 10
   multiplicity 1
   maxiter 40
   vectors input h2o.mos
   vectors output h2o.mos
 end

 task mcscf

 scf
   vectors input h2o.mos
   vectors output h2o-trash.mos
   noscf
 end

 tce
   2eorb
   2emet 13
   ccsd
   maxiter 300
 end

# set tce:print_integrals T
# set tce:qorb 8
# set tce:qela 5
# set tce:qelb 5

 set tce:qducc T
 set tce:nactv 3
 set tce:nonhf T
 set tce:ducc_model 6

 set tce:printtol 0.02

 task tce
================================================================================

 Output coordinates in a.u. (scale by  1.000000000 to convert to a.u.)

  No.       Tag          Charge          X              Y              Z
 ---- ---------------- ---------- -------------- -------------- --------------
    1 O                    8.0000    -0.17255800    -0.16741470     0.00000000
    2 H                    1.0000    -0.17255800     2.15533230     0.00000000
    3 H                    1.0000     1.55302200    -0.81601470     0.00000000

 Vector    1  Occ=1.999991D+00  E=-2.057861D+01  Symmetry=a

 Vector    2  Occ=1.998414D+00  E=-1.314091D+00  Symmetry=a

 Vector    3  Occ=1.978623D+00  E=-6.951246D-01  Symmetry=a

 Vector    4  Occ=1.974531D+00  E=-5.676400D-01  Symmetry=a

 Vector    5  Occ=1.952848D+00  E=-5.255720D-01  Symmetry=a

 Vector    6  Occ=4.857321D-02  E=-3.900007D-02  Symmetry=a

 Vector    7  Occ=2.620060D-02  E=-2.618056D-02  Symmetry=a

 Vector    8  Occ=2.081950D-02  E=-1.677621D-02  Symmetry=a

 Vector    9  Occ=0.000000D+00  E= 7.395401D-02  Symmetry=a

 Vector   10  Occ=0.000000D+00  E= 8.708132D-02  Symmetry=a

 Vector   11  Occ=0.000000D+00  E= 2.364744D-01  Symmetry=a

 Vector   12  Occ=0.000000D+00  E= 2.797480D-01  Symmetry=a

 Vector   13  Occ=0.000000D+00  E= 3.188367D-01  Symmetry=a

 Vector   14  Occ=0.000000D+00  E= 4.813032D-01  Symmetry=a

 Vector   15  Occ=0.000000D+00  E= 5.005267D-01  Symmetry=a

 Vector   16  Occ=0.000000D+00  E= 6.477803D-01  Symmetry=a

 Vector   17  Occ=0.000000D+00  E= 1.022604D+00  Symmetry=a

 Vector   18  Occ=0.000000D+00  E= 1.143635D+00  Symmetry=a

         Total SCF energy =    -75.996497583554

 Vector    2  Occ=2.000000D+00  E=-1.314091D+00

 Vector    3  Occ=2.000000D+00  E=-6.951246D-01

 Vector    4  Occ=2.000000D+00  E=-5.676400D-01

 Vector    5  Occ=2.000000D+00  E=-5.255720D-01

 Vector    6  Occ=0.000000D+00  E=-3.900007D-02

 Vector    7  Occ=0.000000D+00  E=-2.618056D-02

 Vector    8  Occ=0.000000D+00  E=-1.677621D-02

 Vector    9  Occ=0.000000D+00  E= 7.395401D-02

 Vector   10  Occ=0.000000D+00  E= 8.708132D-02

 Vector   11  Occ=0.000000D+00  E= 2.364744D-01

 Vector   12  Occ=0.000000D+00  E= 2.797480D-01

 Vector   13  Occ=0.000000D+00  E= 3.188367D-01

 Vector   14  Occ=0.000000D+00  E= 4.813032D-01

 Vector   15  Occ=0.000000D+00  E= 5.005267D-01

       Multipole analysis of the density wrt the origin
       ------------------------------------------------

     L   x y z        total         open         nuclear
     -   - - -        -----         ----         -------
     0   0 0 0     -0.000000      0.000000     10.000000

     1   1 0 0      0.645064      0.000000     -0.000000
     1   0 1 0      0.521109      0.000000      0.000000
     1   0 0 1     -0.000000      0.000000      0.000000

     2   2 0 0     -4.460465      0.000000      2.679864
     2   1 1 0     -0.914992      0.000000     -1.408099
     2   1 0 1      0.000000      0.000000      0.000000
     2   0 2 0     -3.208530      0.000000      5.535559
     2   0 1 1      0.000000      0.000000      0.000000

 CCSD total energy / hartree       =       -76.255742936806541
 Total times  cpu:       63.5s     wall:       65.6s
