============================== echo of input deck ==============================
 echo
 start H2O
 title "H2O"

 memory total 24 gb

 geometry units bohr
 symmetry c1
        O  0.00000000  0.00000000  0.00000000
        H  0.00000000  2.3780505  0.00000000
        H  1.72558000 -0.64860000  0.00000000
 end

 basis spherical
   * library 6-311++G**
 end

 mcscf
   active  8
   actelec 10
   multiplicity 1
   maxiter 40
   vectors input h2o.mos
   vectors output h2o.mos
 end

 task mcscf

 scf
   vectors input h2o.mos
   vectors output h2o-trash.mos
   noscf
 end

 tce
   2eorb
   2emet 13
   ccsd
   maxiter 300
 end

# set tce:print_integrals T
# set tce:qorb 8
# set tce:qela 5
# set tce:qelb 5

 set tce:qducc T
 set tce:nactv 3
 set tce:nonhf T
 set tce:ducc_model 6

 set tce:printtol 0.02

 task tce
================================================================================

 Output coordinates in a.u. (scale by  1.000000000 to convert to a.u.)

  No.       Tag          Charge          X              Y              Z
 ---- ---------------- ---------- -------------- -------------- --------------
    1 O                    8.0000    -0.17255800    -0.17294505     0.00000000
    2 H                    1.0000    -0.17255800     2.20510545     0.00000000
    3 H                    1.0000     1.55302200    -0.82154505     0.00000000

 Vector    1  Occ=1.999991D+00  E=-2.058042D+01  Symmetry=a

 Vector    2  Occ=1.998353D+00  E=-1.311563D+00  Symmetry=a

 Vector    3  Occ=1.978482D+00  E=-6.906891D-01  Symmetry=a

 Vector    4  Occ=1.974354D+00  E=-5.642409D-01  Symmetry=a

 Vector    5  Occ=1.948638D+00  E=-5.254580D-01  Symmetry=a

 Vector    6  Occ=5.286304D-02  E=-4.089788D-02  Symmetry=a

 Vector    7  Occ=2.638252D-02  E=-2.621764D-02  Symmetry=a

 Vector    8  Occ=2.093703D-02  E=-1.670481D-02  Symmetry=a

 Vector    9  Occ=0.000000D+00  E= 7.425741D-02  Symmetry=a

 Vector   10  Occ=0.000000D+00  E= 8.703628D-02  Symmetry=a

 Vector   11  Occ=0.000000D+00  E= 2.365403D-01  Symmetry=a

 Vector   12  Occ=0.000000D+00  E= 2.800495D-01  Symmetry=a

 Vector   13  Occ=0.000000D+00  E= 3.190581D-01  Symmetry=a

 Vector   14  Occ=0.000000D+00  E= 4.814146D-01  Symmetry=a

 Vector   15  Occ=0.000000D+00  E= 5.005236D-01  Symmetry=a

 Vector   16  Occ=0.000000D+00  E= 6.505988D-01  Symmetry=a

 Vector   17  Occ=0.000000D+00  E= 1.024562D+00  Symmetry=a

 Vector   18  Occ=0.000000D+00  E= 1.156064D+00  Symmetry=a

         Total SCF energy =    -75.988401313514

 Vector    2  Occ=2.000000D+00  E=-1.311563D+00

 Vector    3  Occ=2.000000D+00  E=-6.906891D-01

 Vector    4  Occ=2.000000D+00  E=-5.642409D-01

 Vector    5  Occ=2.000000D+00  E=-5.254580D-01

 Vector    6  Occ=0.000000D+00  E=-4.089788D-02

 Vector    7  Occ=0.000000D+00  E=-2.621764D-02

 Vector    8  Occ=0.000000D+00  E=-1.670481D-02

 Vector    9  Occ=0.000000D+00  E= 7.425741D-02

 Vector   10  Occ=0.000000D+00  E= 8.703628D-02

 Vector   11  Occ=0.000000D+00  E= 2.365403D-01

 Vector   12  Occ=0.000000D+00  E= 2.800495D-01

 Vector   13  Occ=0.000000D+00  E= 3.190581D-01

 Vector   14  Occ=0.000000D+00  E= 4.814146D-01

 Vector   15  Occ=0.000000D+00  E= 5.005236D-01

       Multipole analysis of the density wrt the origin
       ------------------------------------------------

     L   x y z        total         open         nuclear
     -   - - -        -----         ----         -------
     0   0 0 0     -0.000000      0.000000     10.000000

     1   1 0 0      0.643026      0.000000     -0.000000
     1   0 1 0      0.522612      0.000000      0.000000
     1   0 0 1     -0.000000      0.000000      0.000000

     2   2 0 0     -4.478336      0.000000      2.679864
     2   1 1 0     -0.917595      0.000000     -1.417642
     2   1 0 1      0.000000      0.000000      0.000000
     2   0 2 0     -3.163397      0.000000      5.776706
     2   0 1 1      0.000000      0.000000      0.000000

 CCSD total energy / hartree       =       -76.248970691749676
 Total times  cpu:       65.2s     wall:       67.5s
