============================== echo of input deck ==============================
 echo
 start H2O
 title "H2O"

 memory total 24 gb

 geometry units bohr
 symmetry c1
        O  0.00000000  0.00000000  0.00000000
        H  0.00000000  2.396485  0.00000000
        H  1.72558000 -0.64860000  0.00000000
 end

 basis spherical
   * library 6-311++G**
 end

 mcscf
   active  8
   actelec 10
   multiplicity 1
   maxiter 40
   vectors input h2o.mos
   vectors output h2o.mos
 end

 task mcscf

 scf
   vectors input h2o.mos
   vectors output h2o-trash.mos
   noscf
 end

 tce
   2eorb
   2emet 13
   ccsd
   maxiter 300
 end

# set tce:print_integrals T
# set tce:qorb 8
# set tce:qela 5
# set tce:qelb 5

 set tce:qducc T
 set tce:nactv 3
 set tce:nonhf T
 set tce:ducc_model 6

 set tce:printtol 0.02

 task tce
================================================================================

 Output coordinates in a.u. (scale by  1.000000000 to convert to a.u.)

  No.       Tag          Charge          X              Y              Z
 ---- ---------------- ---------- -------------- -------------- --------------
    1 O                    8.0000    -0.17255800    -0.17478850     0.00000000
    2 H                    1.0000    -0.17255800     2.22169650     0.00000000
    3 H                    1.0000     1.55302200    -0.82338850     0.00000000

 Vector    1  Occ=1.999991D+00  E=-2.058102D+01  Symmetry=a

 Vector    2  Occ=1.998334D+00  E=-1.310798D+00  Symmetry=a

 Vector    3  Occ=1.978440D+00  E=-6.893070D-01  Symmetry=a

 Vector    4  Occ=1.974297D+00  E=-5.630669D-01  Symmetry=a

 Vector    5  Occ=1.947135D+00  E=-5.254468D-01  Symmetry=a

 Vector    6  Occ=5.439141D-02  E=-4.155611D-02  Symmetry=a

 Vector    7  Occ=2.644079D-02  E=-2.622940D-02  Symmetry=a

 Vector    8  Occ=2.097050D-02  E=-1.667908D-02  Symmetry=a

 Vector    9  Occ=0.000000D+00  E= 7.435840D-02  Symmetry=a

 Vector   10  Occ=0.000000D+00  E= 8.702273D-02  Symmetry=a

 Vector   11  Occ=0.000000D+00  E= 2.365671D-01  Symmetry=a

 Vector   12  Occ=0.000000D+00  E= 2.801528D-01  Symmetry=a

 Vector   13  Occ=0.000000D+00  E= 3.191302D-01  Symmetry=a

 Vector   14  Occ=0.000000D+00  E= 4.815049D-01  Symmetry=a

 Vector   15  Occ=0.000000D+00  E= 5.005016D-01  Symmetry=a

 Vector   16  Occ=0.000000D+00  E= 6.514804D-01  Symmetry=a

 Vector   17  Occ=0.000000D+00  E= 1.025234D+00  Symmetry=a

 Vector   18  Occ=0.000000D+00  E= 1.160172D+00  Symmetry=a

         Total SCF energy =    -75.985676254390

 Vector    2  Occ=2.000000D+00  E=-1.310798D+00

 Vector    3  Occ=2.000000D+00  E=-6.893070D-01

 Vector    4  Occ=2.000000D+00  E=-5.630669D-01

 Vector    5  Occ=2.000000D+00  E=-5.254468D-01

 Vector    6  Occ=0.000000D+00  E=-4.155611D-02

 Vector    7  Occ=0.000000D+00  E=-2.622940D-02

 Vector    8  Occ=0.000000D+00  E=-1.667908D-02

 Vector    9  Occ=0.000000D+00  E= 7.435840D-02

 Vector   10  Occ=0.000000D+00  E= 8.702273D-02

 Vector   11  Occ=0.000000D+00  E= 2.365671D-01

 Vector   12  Occ=0.000000D+00  E= 2.801528D-01

 Vector   13  Occ=0.000000D+00  E= 3.191302D-01

 Vector   14  Occ=0.000000D+00  E= 4.815049D-01

 Vector   15  Occ=0.000000D+00  E= 5.005016D-01

       Multipole analysis of the density wrt the origin
       ------------------------------------------------

     L   x y z        total         open         nuclear
     -   - - -        -----         ----         -------
     0   0 0 0     -0.000000      0.000000     10.000000

     1   1 0 0      0.642364      0.000000     -0.000000
     1   0 1 0      0.522799      0.000000      0.000000
     1   0 0 1     -0.000000      0.000000      0.000000

     2   2 0 0     -4.484094      0.000000      2.679864
     2   1 1 0     -0.918332      0.000000     -1.420823
     2   1 0 1      0.000000      0.000000      0.000000
     2   0 2 0     -3.148727      0.000000      5.858312
     2   0 1 1      0.000000      0.000000      0.000000

 CCSD total energy / hartree       =       -76.246698588754072
 Total times  cpu:       57.7s     wall:       60.0s
