============================== echo of input deck ==============================
 echo
 start H2O
 title "H2O"

 memory total 24 gb

 geometry units bohr
 symmetry c1
        O  0.00000000  0.00000000  0.00000000
        H  0.00000000  2.507092  0.00000000
        H  1.72558000 -0.64860000  0.00000000
 end

 basis spherical
   * library 6-311++G**
 end

 mcscf
   active  8
   actelec 10
   multiplicity 1
   maxiter 40
   vectors input h2o.mos
   vectors output h2o.mos
 end

 task mcscf

 scf
   vectors input h2o.mos
   vectors output h2o-trash.mos
   noscf
 end

 tce
   2eorb
   2emet 13
   ccsd
   maxiter 300
 end

# set tce:print_integrals T
# set tce:qorb 8
# set tce:qela 5
# set tce:qelb 5

 set tce:qducc T
 set tce:nactv 3
 set tce:nonhf T
 set tce:ducc_model 6

 set tce:printtol 0.02

 task tce
================================================================================

 Output coordinates in a.u. (scale by  1.000000000 to convert to a.u.)

  No.       Tag          Charge          X              Y              Z
 ---- ---------------- ---------- -------------- -------------- --------------
    1 O                    8.0000    -0.17255800    -0.18584920     0.00000000
    2 H                    1.0000    -0.17255800     2.32124280     0.00000000
    3 H                    1.0000     1.55302200    -0.83444920     0.00000000

 Vector    1  Occ=1.999991D+00  E=-2.058461D+01  Symmetry=a

 Vector    2  Occ=1.998221D+00  E=-1.306976D+00  Symmetry=a

 Vector    3  Occ=1.978260D+00  E=-6.820292D-01  Symmetry=a

 Vector    4  Occ=1.973986D+00  E=-5.555787D-01  Symmetry=a

 Vector    5  Occ=1.936942D+00  E=-5.256659D-01  Symmetry=a

 Vector    6  Occ=6.472862D-02  E=-4.580439D-02  Symmetry=a

 Vector    7  Occ=2.676310D-02  E=-2.629382D-02  Symmetry=a

 Vector    8  Occ=2.110792D-02  E=-1.650579D-02  Symmetry=a

 Vector    9  Occ=0.000000D+00  E= 7.496055D-02  Symmetry=a

 Vector   10  Occ=0.000000D+00  E= 8.696042D-02  Symmetry=a

 Vector   11  Occ=0.000000D+00  E= 2.367664D-01  Symmetry=a

 Vector   12  Occ=0.000000D+00  E= 2.807914D-01  Symmetry=a

 Vector   13  Occ=0.000000D+00  E= 3.195454D-01  Symmetry=a

 Vector   14  Occ=0.000000D+00  E= 4.825631D-01  Symmetry=a

 Vector   15  Occ=0.000000D+00  E= 5.001473D-01  Symmetry=a

 Vector   16  Occ=0.000000D+00  E= 6.560867D-01  Symmetry=a

 Vector   17  Occ=0.000000D+00  E= 1.029494D+00  Symmetry=a

 Vector   18  Occ=0.000000D+00  E= 1.184215D+00  Symmetry=a

         Total SCF energy =    -75.969177472180

 Vector    2  Occ=2.000000D+00  E=-1.306976D+00

 Vector    3  Occ=2.000000D+00  E=-6.820292D-01

 Vector    4  Occ=2.000000D+00  E=-5.555787D-01

 Vector    5  Occ=2.000000D+00  E=-5.256659D-01

 Vector    6  Occ=0.000000D+00  E=-4.580439D-02

 Vector    7  Occ=0.000000D+00  E=-2.629382D-02

 Vector    8  Occ=0.000000D+00  E=-1.650579D-02

 Vector    9  Occ=0.000000D+00  E= 7.496055D-02

 Vector   10  Occ=0.000000D+00  E= 8.696042D-02

 Vector   11  Occ=0.000000D+00  E= 2.367664D-01

 Vector   12  Occ=0.000000D+00  E= 2.807914D-01

 Vector   13  Occ=0.000000D+00  E= 3.195454D-01

 Vector   14  Occ=0.000000D+00  E= 4.825631D-01

 Vector   15  Occ=0.000000D+00  E= 5.001473D-01

       Multipole analysis of the density wrt the origin
       ------------------------------------------------

     L   x y z        total         open         nuclear
     -   - - -        -----         ----         -------
     0   0 0 0     -0.000000      0.000000     10.000000

     1   1 0 0      0.638596      0.000000     -0.000000
     1   0 1 0      0.520451      0.000000     -0.000000
     1   0 0 1     -0.000000      0.000000      0.000000

     2   2 0 0     -4.516503      0.000000      2.679864
     2   1 1 0     -0.921288      0.000000     -1.439909
     2   1 0 1      0.000000      0.000000      0.000000
     2   0 2 0     -3.065738      0.000000      6.360793
     2   0 1 1      0.000000      0.000000      0.000000

 CCSD total energy / hartree       =       -76.233051241806081
 Total times  cpu:       51.5s     wall:       53.8s
