============================== echo of input deck ==============================
 echo
 start H2O
 title "H2O"

 memory total 24 gb

 geometry units bohr
 symmetry c1
        O  0.00000000  0.00000000  0.00000000
        H  0.00000000  2.543961  0.00000000
        H  1.72558000 -0.64860000  0.00000000
 end

 basis spherical
   * library 6-311++G**
 end

 mcscf
   active  8
   actelec 10
   multiplicity 1
   maxiter 40
   vectors input h2o.mos
   vectors output h2o.mos
 end

 task mcscf

 scf
   vectors input h2o.mos
   vectors output h2o-trash.mos
   noscf
 end

 tce
   2eorb
   2emet 13
   ccsd
   maxiter 300
 end

# set tce:print_integrals T
# set tce:qorb 8
# set tce:qela 5
# set tce:qelb 5

 set tce:qducc T
 set tce:nactv 3
 set tce:nonhf T
 set tce:ducc_model 6

 set tce:printtol 0.02

 task tce
================================================================================

 Output coordinates in a.u. (scale by  1.000000000 to convert to a.u.)

  No.       Tag          Charge          X              Y              Z
 ---- ---------------- ---------- -------------- -------------- --------------
    1 O                    8.0000    -0.17255800    -0.18953610     0.00000000
    2 H                    1.0000    -0.17255800     2.35442490     0.00000000
    3 H                    1.0000     1.55302200    -0.83813610     0.00000000

 Vector    1  Occ=1.999991D+00  E=-2.058581D+01  Symmetry=a

 Vector    2  Occ=1.998187D+00  E=-1.305977D+00  Symmetry=a

 Vector    3  Occ=1.978227D+00  E=-6.799866D-01  Symmetry=a

 Vector    4  Occ=1.973894D+00  E=-5.529104D-01  Symmetry=a

 Vector    5  Occ=1.933046D+00  E=-5.258488D-01  Symmetry=a

 Vector    6  Occ=6.866734D-02  E=-4.734494D-02  Symmetry=a

 Vector    7  Occ=2.685938D-02  E=-2.631299D-02  Symmetry=a

 Vector    8  Occ=2.112857D-02  E=-1.644133D-02  Symmetry=a

 Vector    9  Occ=0.000000D+00  E= 7.515829D-02  Symmetry=a

 Vector   10  Occ=0.000000D+00  E= 8.694846D-02  Symmetry=a

 Vector   11  Occ=0.000000D+00  E= 2.368435D-01  Symmetry=a

 Vector   12  Occ=0.000000D+00  E= 2.810077D-01  Symmetry=a

 Vector   13  Occ=0.000000D+00  E= 3.196774D-01  Symmetry=a

 Vector   14  Occ=0.000000D+00  E= 4.830959D-01  Symmetry=a

 Vector   15  Occ=0.000000D+00  E= 4.999473D-01  Symmetry=a

 Vector   16  Occ=0.000000D+00  E= 6.573363D-01  Symmetry=a

 Vector   17  Occ=0.000000D+00  E= 1.030998D+00  Symmetry=a

 Vector   18  Occ=0.000000D+00  E= 1.191905D+00  Symmetry=a

         Total SCF energy =    -75.963657285937

 Vector    2  Occ=2.000000D+00  E=-1.305977D+00

 Vector    3  Occ=2.000000D+00  E=-6.799866D-01

 Vector    4  Occ=2.000000D+00  E=-5.529104D-01

 Vector    5  Occ=2.000000D+00  E=-5.258488D-01

 Vector    6  Occ=0.000000D+00  E=-4.734494D-02

 Vector    7  Occ=0.000000D+00  E=-2.631299D-02

 Vector    8  Occ=0.000000D+00  E=-1.644133D-02

 Vector    9  Occ=0.000000D+00  E= 7.515829D-02

 Vector   10  Occ=0.000000D+00  E= 8.694846D-02

 Vector   11  Occ=0.000000D+00  E= 2.368435D-01

 Vector   12  Occ=0.000000D+00  E= 2.810077D-01

 Vector   13  Occ=0.000000D+00  E= 3.196774D-01

 Vector   14  Occ=0.000000D+00  E= 4.830959D-01

 Vector   15  Occ=0.000000D+00  E= 4.999473D-01

 Vector   16  Occ=0.000000D+00  E= 6.573363D-01

       Multipole analysis of the density wrt the origin
       ------------------------------------------------

     L   x y z        total         open         nuclear
     -   - - -        -----         ----         -------
     0   0 0 0     -0.000000      0.000000     10.000000

     1   1 0 0      0.637423      0.000000     -0.000000
     1   0 1 0      0.518290      0.000000     -0.000000
     1   0 0 1     -0.000000      0.000000      0.000000

     2   2 0 0     -4.526476      0.000000      2.679864
     2   1 1 0     -0.921691      0.000000     -1.446271
     2   1 0 1      0.000000      0.000000      0.000000
     2   0 2 0     -3.040367      0.000000      6.533180
     2   0 1 1      0.000000      0.000000      0.000000

 CCSD total energy / hartree       =       -76.228536567451826
 Total times  cpu:       55.0s     wall:       57.2s
