============================== echo of input deck ==============================
 echo
 start H2O
 title "H2O"

 memory total 24 gb

 geometry units bohr
 symmetry c1
        O  0.00000000  0.00000000  0.00000000
        H  0.00000000  2.8573475  0.00000000
        H  1.72558000 -0.64860000  0.00000000
 end

 basis spherical
   * library 6-311++G**
 end

 mcscf
   active  8
   actelec 10
   multiplicity 1
   maxiter 40
   vectors input h2o.mos
   vectors output h2o.mos
 end

 task mcscf

 scf
   vectors input h2o.mos
   vectors output h2o-trash.mos
   noscf
 end

 tce
   2eorb
   2emet 13
   ccsd
   maxiter 300
 end

# set tce:print_integrals T
# set tce:qorb 8
# set tce:qela 5
# set tce:qelb 5

 set tce:qducc T
 set tce:nactv 3
 set tce:nonhf T
 set tce:ducc_model 6

 set tce:printtol 0.02

 task tce
================================================================================

 Output coordinates in a.u. (scale by  1.000000000 to convert to a.u.)

  No.       Tag          Charge          X              Y              Z
 ---- ---------------- ---------- -------------- -------------- --------------
    1 O                    8.0000    -0.17255800    -0.22087475     0.00000000
    2 H                    1.0000    -0.17255800     2.63647275     0.00000000
    3 H                    1.0000     1.55302200    -0.86947475     0.00000000

 Vector    1  Occ=1.999991D+00  E=-2.059617D+01  Symmetry=a

 Vector    2  Occ=1.998004D+00  E=-1.301995D+00  Symmetry=a

 Vector    3  Occ=1.978523D+00  E=-6.696072D-01  Symmetry=a

 Vector    4  Occ=1.973373D+00  E=-5.293622D-01  Symmetry=a

 Vector    5  Occ=1.887057D+00  E=-5.272538D-01  Symmetry=a

 Vector    6  Occ=1.148432D-01  E=-6.312068D-02  Symmetry=a

 Vector    7  Occ=2.742620D-02  E=-2.642900D-02  Symmetry=a

 Vector    8  Occ=2.078242D-02  E=-1.584054D-02  Symmetry=a

 Vector    9  Occ=0.000000D+00  E= 7.653023D-02  Symmetry=a

 Vector   10  Occ=0.000000D+00  E= 8.711630D-02  Symmetry=a

 Vector   11  Occ=0.000000D+00  E= 2.375657D-01  Symmetry=a

 Vector   12  Occ=0.000000D+00  E= 2.825396D-01  Symmetry=a

 Vector   13  Occ=0.000000D+00  E= 3.204763D-01  Symmetry=a

 Vector   14  Occ=0.000000D+00  E= 4.891950D-01  Symmetry=a

 Vector   15  Occ=0.000000D+00  E= 4.983448D-01  Symmetry=a

 Vector   16  Occ=0.000000D+00  E= 6.625098D-01  Symmetry=a

 Vector   17  Occ=0.000000D+00  E= 1.044093D+00  Symmetry=a

 Vector   18  Occ=0.000000D+00  E= 1.241959D+00  Symmetry=a

         Total SCF energy =    -75.917646018833

 Vector    2  Occ=2.000000D+00  E=-1.301995D+00

 Vector    3  Occ=2.000000D+00  E=-6.696072D-01

 Vector    4  Occ=2.000000D+00  E=-5.293622D-01

 Vector    5  Occ=2.000000D+00  E=-5.272538D-01

 Vector    6  Occ=0.000000D+00  E=-6.312068D-02

 Vector    7  Occ=0.000000D+00  E=-2.642900D-02

 Vector    8  Occ=0.000000D+00  E=-1.584054D-02

 Vector    9  Occ=0.000000D+00  E= 7.653023D-02

 Vector   10  Occ=0.000000D+00  E= 8.711630D-02

 Vector   11  Occ=0.000000D+00  E= 2.375657D-01

 Vector   12  Occ=0.000000D+00  E= 2.825396D-01

 Vector   13  Occ=0.000000D+00  E= 3.204763D-01

 Vector   14  Occ=0.000000D+00  E= 4.891950D-01

 Vector   15  Occ=0.000000D+00  E= 4.983448D-01

 Vector   16  Occ=0.000000D+00  E= 6.625098D-01

       Multipole analysis of the density wrt the origin
       ------------------------------------------------

     L   x y z        total         open         nuclear
     -   - - -        -----         ----         -------
     0   0 0 0     -0.000000      0.000000     10.000000

     1   1 0 0      0.629419      0.000000     -0.000000
     1   0 1 0      0.470879      0.000000      0.000000
     1   0 0 1     -0.000000      0.000000      0.000000

     2   2 0 0     -4.594297      0.000000      2.679864
     2   1 1 0     -0.912420      0.000000     -1.500348
     2   1 0 1      0.000000      0.000000      0.000000
     2   0 2 0     -2.889047      0.000000      8.097260
     2   0 1 1      0.000000      0.000000      0.000000

 CCSD total energy / hartree       =       -76.192405130368698
 Total times  cpu:       57.2s     wall:       61.1s
