============================== echo of input deck ==============================
 echo
 start H2O
 title "H2O"

 memory total 24 gb

 geometry units bohr
 symmetry c1
        O  0.00000000  0.00000000  0.00000000
        H  0.00000000  3.0416925  0.00000000
        H  1.72558000 -0.64860000  0.00000000
 end

 basis spherical
   * library 6-311++G**
 end

 mcscf
   active  8
   actelec 10
   multiplicity 1
   maxiter 40
   vectors input h2o.mos
   vectors output h2o.mos
 end

 task mcscf

 scf
   vectors input h2o.mos
   vectors output h2o-trash.mos
   noscf
 end

 tce
   2eorb
   2emet 13
   ccsd
   maxiter 300
 end

# set tce:print_integrals T
# set tce:qorb 8
# set tce:qela 5
# set tce:qelb 5

 set tce:qducc T
 set tce:nactv 3
 set tce:nonhf T
 set tce:ducc_model 6

 set tce:printtol 0.02

 task tce
================================================================================

 Output coordinates in a.u. (scale by  1.000000000 to convert to a.u.)

  No.       Tag          Charge          X              Y              Z
 ---- ---------------- ---------- -------------- -------------- --------------
    1 O                    8.0000    -0.17255800    -0.23930925     0.00000000
    2 H                    1.0000    -0.17255800     2.80238325     0.00000000
    3 H                    1.0000     1.55302200    -0.88790925     0.00000000

 Vector    1  Occ=1.999992D+00  E=-2.060225D+01  Symmetry=a

 Vector    2  Occ=1.998007D+00  E=-1.302720D+00  Symmetry=a

 Vector    3  Occ=1.979126D+00  E=-6.683587D-01  Symmetry=a

 Vector    4  Occ=1.973284D+00  E=-5.330077D-01  Symmetry=a

 Vector    5  Occ=1.847162D+00  E=-5.096409D-01  Symmetry=a

 Vector    6  Occ=1.546725D-01  E=-7.550036D-02  Symmetry=a

 Vector    7  Occ=2.755192D-02  E=-2.647302D-02  Symmetry=a

 Vector    8  Occ=2.020445D-02  E=-1.542998D-02  Symmetry=a

 Vector    9  Occ=0.000000D+00  E= 7.697348D-02  Symmetry=a

 Vector   10  Occ=0.000000D+00  E= 8.768078D-02  Symmetry=a

 Vector   11  Occ=0.000000D+00  E= 2.378078D-01  Symmetry=a

 Vector   12  Occ=0.000000D+00  E= 2.831166D-01  Symmetry=a

 Vector   13  Occ=0.000000D+00  E= 3.208224D-01  Symmetry=a

 Vector   14  Occ=0.000000D+00  E= 4.888772D-01  Symmetry=a

 Vector   15  Occ=0.000000D+00  E= 5.020150D-01  Symmetry=a

 Vector   16  Occ=0.000000D+00  E= 6.593163D-01  Symmetry=a

 Vector   17  Occ=0.000000D+00  E= 1.052687D+00  Symmetry=a

 Vector   18  Occ=0.000000D+00  E= 1.253509D+00  Symmetry=a

         Total SCF energy =    -75.892031429366

 Vector    2  Occ=2.000000D+00  E=-1.302720D+00

 Vector    3  Occ=2.000000D+00  E=-6.683587D-01

 Vector    4  Occ=2.000000D+00  E=-5.330077D-01

 Vector    5  Occ=2.000000D+00  E=-5.096409D-01

 Vector    6  Occ=0.000000D+00  E=-7.550036D-02

 Vector    7  Occ=0.000000D+00  E=-2.647302D-02

 Vector    8  Occ=0.000000D+00  E=-1.542998D-02

 Vector    9  Occ=0.000000D+00  E= 7.697348D-02

 Vector   10  Occ=0.000000D+00  E= 8.768078D-02

 Vector   11  Occ=0.000000D+00  E= 2.378078D-01

 Vector   12  Occ=0.000000D+00  E= 2.831166D-01

 Vector   13  Occ=0.000000D+00  E= 3.208224D-01

 Vector   14  Occ=0.000000D+00  E= 4.888772D-01

 Vector   15  Occ=0.000000D+00  E= 5.020150D-01

       Multipole analysis of the density wrt the origin
       ------------------------------------------------

     L   x y z        total         open         nuclear
     -   - - -        -----         ----         -------
     0   0 0 0     -0.000000      0.000000     10.000000

     1   1 0 0      0.626626      0.000000     -0.000000
     1   0 1 0      0.420878      0.000000     -0.000000
     1   0 0 1     -0.000000      0.000000      0.000000

     2   2 0 0     -4.620728      0.000000      2.679864
     2   1 1 0     -0.896462      0.000000     -1.532158
     2   1 0 1      0.000000      0.000000      0.000000
     2   0 2 0     -2.863068      0.000000      9.099886
     2   0 1 1      0.000000      0.000000      0.000000

 CCSD total energy / hartree       =       -76.173885092261841
 Total times  cpu:       52.3s     wall:       56.5s
