============================== echo of input deck ==============================
 echo
 start H2O
 title "H2O"

 memory total 24 gb

 geometry units bohr
 symmetry c1
        O  0.00000000  0.00000000  0.00000000
        H  0.00000000  3.133865  0.00000000
        H  1.72558000 -0.64860000  0.00000000
 end

 basis spherical
   * library 6-311++G**
 end

 mcscf
   active  8
   actelec 10
   multiplicity 1
   maxiter 40
   vectors input h2o.mos
   vectors output h2o.mos
 end

 task mcscf

 scf
   vectors input h2o.mos
   vectors output h2o-trash.mos
   noscf
 end

 tce
   2eorb
   2emet 13
   ccsd
   maxiter 300
 end

# set tce:print_integrals T
# set tce:qorb 8
# set tce:qela 5
# set tce:qelb 5

 set tce:qducc T
 set tce:nactv 3
 set tce:nonhf T
 set tce:ducc_model 6

 set tce:printtol 0.02

 task tce
================================================================================

 Output coordinates in a.u. (scale by  1.000000000 to convert to a.u.)

  No.       Tag          Charge          X              Y              Z
 ---- ---------------- ---------- -------------- -------------- --------------
    1 O                    8.0000    -0.17255800    -0.24852650     0.00000000
    2 H                    1.0000    -0.17255800     2.88533850     0.00000000
    3 H                    1.0000     1.55302200    -0.89712650     0.00000000

 Vector    1  Occ=1.999992D+00  E=-2.060515D+01  Symmetry=a

 Vector    2  Occ=1.998036D+00  E=-1.303589D+00  Symmetry=a

 Vector    3  Occ=1.979507D+00  E=-6.686149D-01  Symmetry=a

 Vector    4  Occ=1.973289D+00  E=-5.350522D-01  Symmetry=a

 Vector    5  Occ=1.823400D+00  E=-5.003626D-01  Symmetry=a

 Vector    6  Occ=1.783601D-01  E=-8.249499D-02  Symmetry=a

 Vector    7  Occ=2.756674D-02  E=-2.648746D-02  Symmetry=a

 Vector    8  Occ=1.984895D-02  E=-1.522791D-02  Symmetry=a

 Vector    9  Occ=0.000000D+00  E= 7.700412D-02  Symmetry=a

 Vector   10  Occ=0.000000D+00  E= 8.811743D-02  Symmetry=a

 Vector   11  Occ=0.000000D+00  E= 2.378646D-01  Symmetry=a

 Vector   12  Occ=0.000000D+00  E= 2.832485D-01  Symmetry=a

 Vector   13  Occ=0.000000D+00  E= 3.209075D-01  Symmetry=a

 Vector   14  Occ=0.000000D+00  E= 4.870758D-01  Symmetry=a

 Vector   15  Occ=0.000000D+00  E= 5.056074D-01  Symmetry=a

 Vector   16  Occ=0.000000D+00  E= 6.561157D-01  Symmetry=a

 Vector   17  Occ=0.000000D+00  E= 1.056807D+00  Symmetry=a

 Vector   18  Occ=0.000000D+00  E= 1.252542D+00  Symmetry=a

         Total SCF energy =    -75.879732245698

 Vector    2  Occ=2.000000D+00  E=-1.303589D+00

 Vector    3  Occ=2.000000D+00  E=-6.686149D-01

 Vector    4  Occ=2.000000D+00  E=-5.350522D-01

 Vector    5  Occ=2.000000D+00  E=-5.003626D-01

 Vector    6  Occ=0.000000D+00  E=-8.249499D-02

 Vector    7  Occ=0.000000D+00  E=-2.648746D-02

 Vector    8  Occ=0.000000D+00  E=-1.522791D-02

 Vector    9  Occ=0.000000D+00  E= 7.700412D-02

 Vector   10  Occ=0.000000D+00  E= 8.811743D-02

 Vector   11  Occ=0.000000D+00  E= 2.378646D-01

 Vector   12  Occ=0.000000D+00  E= 2.832485D-01

 Vector   13  Occ=0.000000D+00  E= 3.209075D-01

 Vector   14  Occ=0.000000D+00  E= 4.870758D-01

 Vector   15  Occ=0.000000D+00  E= 5.056074D-01

       Multipole analysis of the density wrt the origin
       ------------------------------------------------

     L   x y z        total         open         nuclear
     -   - - -        -----         ----         -------
     0   0 0 0     -0.000000      0.000000     10.000000

     1   1 0 0      0.625790      0.000000     -0.000000
     1   0 1 0      0.391353      0.000000      0.000000
     1   0 0 1     -0.000000      0.000000      0.000000

     2   2 0 0     -4.630670      0.000000      2.679864
     2   1 1 0     -0.885955      0.000000     -1.548064
     2   1 0 1      0.000000      0.000000      0.000000
     2   0 2 0     -2.867385      0.000000      9.624138
     2   0 1 1      0.000000      0.000000      0.000000

 CCSD total energy / hartree       =       -76.165515180225867
 Total times  cpu:       54.4s     wall:       58.6s
