============================== echo of input deck ==============================
 echo
 start H2O
 title "H2O"

 memory total 24 gb

 geometry units bohr
 symmetry c1
        O  0.00000000  0.00000000  0.00000000
        H  0.00000000  3.2260375  0.00000000
        H  1.72558000 -0.64860000  0.00000000
 end

 basis spherical
   * library 6-311++G**
 end

 mcscf
   active  8
   actelec 10
   multiplicity 1
   maxiter 40
   vectors input h2o.mos
   vectors output h2o.mos
 end

 task mcscf

 scf
   vectors input h2o.mos
   vectors output h2o-trash.mos
   noscf
 end

 tce
   2eorb
   2emet 13
   ccsd
   maxiter 300
 end

# set tce:print_integrals T
# set tce:qorb 8
# set tce:qela 5
# set tce:qelb 5

 set tce:qducc T
 set tce:nactv 3
 set tce:nonhf T
 set tce:ducc_model 6

 set tce:printtol 0.02

 task tce
================================================================================

 Output coordinates in a.u. (scale by  1.000000000 to convert to a.u.)

  No.       Tag          Charge          X              Y              Z
 ---- ---------------- ---------- -------------- -------------- --------------
    1 O                    8.0000    -0.17255800    -0.25774375     0.00000000
    2 H                    1.0000    -0.17255800     2.96829375     0.00000000
    3 H                    1.0000     1.55302200    -0.90634375     0.00000000

 Vector    1  Occ=1.999992D+00  E=-2.060787D+01  Symmetry=a

 Vector    2  Occ=1.998079D+00  E=-1.304675D+00  Symmetry=a

 Vector    3  Occ=1.979919D+00  E=-6.692710D-01  Symmetry=a

 Vector    4  Occ=1.973321D+00  E=-5.371563D-01  Symmetry=a

 Vector    5  Occ=1.797223D+00  E=-4.908844D-01  Symmetry=a

 Vector    6  Occ=2.044404D-01  E=-8.997753D-02  Symmetry=a

 Vector    7  Occ=2.755617D-02  E=-2.649766D-02  Symmetry=a

 Vector    8  Occ=1.946913D-02  E=-1.503334D-02  Symmetry=a

 Vector    9  Occ=0.000000D+00  E= 7.691038D-02  Symmetry=a

 Vector   10  Occ=0.000000D+00  E= 8.864661D-02  Symmetry=a

 Vector   11  Occ=0.000000D+00  E= 2.378737D-01  Symmetry=a

 Vector   12  Occ=0.000000D+00  E= 2.832700D-01  Symmetry=a

 Vector   13  Occ=0.000000D+00  E= 3.209152D-01  Symmetry=a

 Vector   14  Occ=0.000000D+00  E= 4.848568D-01  Symmetry=a

 Vector   15  Occ=0.000000D+00  E= 5.096868D-01  Symmetry=a

 Vector   16  Occ=0.000000D+00  E= 6.520590D-01  Symmetry=a

 Vector   17  Occ=0.000000D+00  E= 1.060706D+00  Symmetry=a

 Vector   18  Occ=0.000000D+00  E= 1.247717D+00  Symmetry=a

         Total SCF energy =    -75.867787991872

 Vector    2  Occ=2.000000D+00  E=-1.304675D+00

 Vector    3  Occ=2.000000D+00  E=-6.692710D-01

 Vector    4  Occ=2.000000D+00  E=-5.371563D-01

 Vector    5  Occ=2.000000D+00  E=-4.908844D-01

 Vector    6  Occ=0.000000D+00  E=-8.997753D-02

 Vector    7  Occ=0.000000D+00  E=-2.649766D-02

 Vector    8  Occ=0.000000D+00  E=-1.503334D-02

 Vector    9  Occ=0.000000D+00  E= 7.691038D-02

 Vector   10  Occ=0.000000D+00  E= 8.864661D-02

 Vector   11  Occ=0.000000D+00  E= 2.378737D-01

 Vector   12  Occ=0.000000D+00  E= 2.832700D-01

 Vector   13  Occ=0.000000D+00  E= 3.209152D-01

 Vector   14  Occ=0.000000D+00  E= 4.848568D-01

 Vector   15  Occ=0.000000D+00  E= 5.096868D-01

       Multipole analysis of the density wrt the origin
       ------------------------------------------------

     L   x y z        total         open         nuclear
     -   - - -        -----         ----         -------
     0   0 0 0     -0.000000      0.000000     10.000000

     1   1 0 0      0.625323      0.000000     -0.000000
     1   0 1 0      0.359770      0.000000     -0.000000
     1   0 0 1     -0.000000      0.000000      0.000000

     2   2 0 0     -4.638650      0.000000      2.679864
     2   1 1 0     -0.874039      0.000000     -1.563969
     2   1 0 1      0.000000      0.000000      0.000000
     2   0 2 0     -2.881880      0.000000     10.163682
     2   0 1 1      0.000000      0.000000      0.000000

 CCSD total energy / hartree       =       -76.157750575812543
 Total times  cpu:       58.7s     wall:       62.9s
