============================== echo of input deck ==============================
 echo
 start H2O
 title "H2O"

 memory total 24 gb

 geometry units bohr
 symmetry c1
        O  0.00000000  0.00000000  0.00000000
        H  0.00000000  3.4103825  0.00000000
        H  1.72558000 -0.64860000  0.00000000
 end

 basis spherical
   * library 6-311++G**
 end

 mcscf
   active  8
   actelec 10
   multiplicity 1
   maxiter 40
   vectors input h2o.mos
   vectors output h2o.mos
 end

 task mcscf

 scf
   vectors input h2o.mos
   vectors output h2o-trash.mos
   noscf
 end

 tce
   2eorb
   2emet 13
   ccsd
   maxiter 300
 end

# set tce:print_integrals T
# set tce:qorb 8
# set tce:qela 5
# set tce:qelb 5

 set tce:qducc T
 set tce:nactv 3
 set tce:nonhf T
 set tce:ducc_model 6

 set tce:printtol 0.02

 task tce
================================================================================

 Output coordinates in a.u. (scale by  1.000000000 to convert to a.u.)

  No.       Tag          Charge          X              Y              Z
 ---- ---------------- ---------- -------------- -------------- --------------
    1 O                    8.0000    -0.17255800    -0.27617825     0.00000000
    2 H                    1.0000    -0.17255800     3.13420425     0.00000000
    3 H                    1.0000     1.55302200    -0.92477825     0.00000000

 Vector    1  Occ=1.999992D+00  E=-2.061265D+01  Symmetry=a

 Vector    2  Occ=1.998192D+00  E=-1.307142D+00  Symmetry=a

 Vector    3  Occ=1.980772D+00  E=-6.712629D-01  Symmetry=a

 Vector    4  Occ=1.973439D+00  E=-5.412748D-01  Symmetry=a

 Vector    5  Occ=1.738585D+00  E=-4.717055D-01  Symmetry=a

 Vector    6  Occ=2.628469D-01  E=-1.060521D-01  Symmetry=a

 Vector    7  Occ=2.748048D-02  E=-2.650546D-02  Symmetry=a

 Vector    8  Occ=1.869193D-02  E=-1.467619D-02  Symmetry=a

 Vector    9  Occ=0.000000D+00  E= 7.643328D-02  Symmetry=a

 Vector   10  Occ=0.000000D+00  E= 8.987683D-02  Symmetry=a

 Vector   11  Occ=0.000000D+00  E= 2.377892D-01  Symmetry=a

 Vector   12  Occ=0.000000D+00  E= 2.830391D-01  Symmetry=a

 Vector   13  Occ=0.000000D+00  E= 3.206690D-01  Symmetry=a

 Vector   14  Occ=0.000000D+00  E= 4.799789D-01  Symmetry=a

 Vector   15  Occ=0.000000D+00  E= 5.184919D-01  Symmetry=a

 Vector   16  Occ=0.000000D+00  E= 6.422442D-01  Symmetry=a

 Vector   17  Occ=0.000000D+00  E= 1.067606D+00  Symmetry=a

 Vector   18  Occ=0.000000D+00  E= 1.231354D+00  Symmetry=a

         Total SCF energy =    -75.844985287577

 Vector    2  Occ=2.000000D+00  E=-1.307142D+00

 Vector    3  Occ=2.000000D+00  E=-6.712629D-01

 Vector    4  Occ=2.000000D+00  E=-5.412748D-01

 Vector    5  Occ=2.000000D+00  E=-4.717055D-01

 Vector    6  Occ=0.000000D+00  E=-1.060521D-01

 Vector    7  Occ=0.000000D+00  E=-2.650546D-02

 Vector    8  Occ=0.000000D+00  E=-1.467619D-02

 Vector    9  Occ=0.000000D+00  E= 7.643328D-02

 Vector   10  Occ=0.000000D+00  E= 8.987683D-02

 Vector   11  Occ=0.000000D+00  E= 2.377892D-01

 Vector   12  Occ=0.000000D+00  E= 2.830391D-01

 Vector   13  Occ=0.000000D+00  E= 3.206690D-01

 Vector   14  Occ=0.000000D+00  E= 4.799789D-01

 Vector   15  Occ=0.000000D+00  E= 5.184919D-01

       Multipole analysis of the density wrt the origin
       ------------------------------------------------

     L   x y z        total         open         nuclear
     -   - - -        -----         ----         -------
     0   0 0 0     -0.000000      0.000000     10.000000

     1   1 0 0      0.625415      0.000000     -0.000000
     1   0 1 0      0.293421      0.000000      0.000000
     1   0 0 1     -0.000000      0.000000      0.000000

     2   2 0 0     -4.649464      0.000000      2.679864
     2   1 1 0     -0.847116      0.000000     -1.595779
     2   1 0 1      0.000000      0.000000      0.000000
     2   0 2 0     -2.935574      0.000000     11.288646
     2   0 1 1      0.000000      0.000000      0.000000

 CCSD total energy / hartree       =       -76.144005882317117
 Total times  cpu:       55.1s     wall:       59.5s
