============================== echo of input deck ==============================
 echo
 start H2O
 title "H2O"

 memory total 24 gb

 geometry units bohr
 symmetry c1
        O  0.00000000  0.00000000  0.00000000
        H  0.00000000  3.502555  0.00000000
        H  1.72558000 -0.64860000  0.00000000
 end

 basis spherical
   * library 6-311++G**
 end

 mcscf
   active  8
   actelec 10
   multiplicity 1
   maxiter 40
   vectors input h2o.mos
   vectors output h2o.mos
 end

 task mcscf

 scf
   vectors input h2o.mos
   vectors output h2o-trash.mos
   noscf
 end

 tce
   2eorb
   2emet 13
   ccsd
   maxiter 300
 end

# set tce:print_integrals T
# set tce:qorb 8
# set tce:qela 5
# set tce:qelb 5

 set tce:qducc T
 set tce:nactv 3
 set tce:nonhf T
 set tce:ducc_model 6

 set tce:printtol 0.02

 task tce
================================================================================

 Output coordinates in a.u. (scale by  1.000000000 to convert to a.u.)

  No.       Tag          Charge          X              Y              Z
 ---- ---------------- ---------- -------------- -------------- --------------
    1 O                    8.0000    -0.17255800    -0.28539550     0.00000000
    2 H                    1.0000    -0.17255800     3.21715950     0.00000000
    3 H                    1.0000     1.55302200    -0.93399550     0.00000000

 Vector    1  Occ=1.999992D+00  E=-2.061466D+01  Symmetry=a

 Vector    2  Occ=1.998256D+00  E=-1.308384D+00  Symmetry=a

 Vector    3  Occ=1.981187D+00  E=-6.723913D-01  Symmetry=a

 Vector    4  Occ=1.973515D+00  E=-5.431810D-01  Symmetry=a

 Vector    5  Occ=1.706783D+00  E=-4.621851D-01  Symmetry=a

 Vector    6  Occ=2.945246D-01  E=-1.144514D-01  Symmetry=a

 Vector    7  Occ=2.742525D-02  E=-2.650380D-02  Symmetry=a

 Vector    8  Occ=1.831708D-02  E=-1.451674D-02  Symmetry=a

 Vector    9  Occ=0.000000D+00  E= 7.610025D-02  Symmetry=a

 Vector   10  Occ=0.000000D+00  E= 9.052538D-02  Symmetry=a

 Vector   11  Occ=0.000000D+00  E= 2.377140D-01  Symmetry=a

 Vector   12  Occ=0.000000D+00  E= 2.828208D-01  Symmetry=a

 Vector   13  Occ=0.000000D+00  E= 3.204088D-01  Symmetry=a

 Vector   14  Occ=0.000000D+00  E= 4.775275D-01  Symmetry=a

 Vector   15  Occ=0.000000D+00  E= 5.230092D-01  Symmetry=a

 Vector   16  Occ=0.000000D+00  E= 6.369258D-01  Symmetry=a

 Vector   17  Occ=0.000000D+00  E= 1.070514D+00  Symmetry=a

 Vector   18  Occ=0.000000D+00  E= 1.222334D+00  Symmetry=a

         Total SCF energy =    -75.834129553541

 Vector    2  Occ=2.000000D+00  E=-1.308384D+00

 Vector    3  Occ=2.000000D+00  E=-6.723913D-01

 Vector    4  Occ=2.000000D+00  E=-5.431810D-01

 Vector    5  Occ=2.000000D+00  E=-4.621851D-01

 Vector    6  Occ=0.000000D+00  E=-1.144514D-01

 Vector    7  Occ=0.000000D+00  E=-2.650380D-02

 Vector    8  Occ=0.000000D+00  E=-1.451674D-02

 Vector    9  Occ=0.000000D+00  E= 7.610025D-02

 Vector   10  Occ=0.000000D+00  E= 9.052538D-02

 Vector   11  Occ=0.000000D+00  E= 2.377140D-01

 Vector   12  Occ=0.000000D+00  E= 2.828208D-01

 Vector   13  Occ=0.000000D+00  E= 3.204088D-01

 Vector   14  Occ=0.000000D+00  E= 4.775275D-01

 Vector   15  Occ=0.000000D+00  E= 5.230092D-01

       Multipole analysis of the density wrt the origin
       ------------------------------------------------

     L   x y z        total         open         nuclear
     -   - - -        -----         ----         -------
     0   0 0 0     -0.000000      0.000000     10.000000

     1   1 0 0      0.625925      0.000000     -0.000000
     1   0 1 0      0.259975      0.000000      0.000000
     1   0 0 1     -0.000000      0.000000      0.000000

     2   2 0 0     -4.652597      0.000000      2.679864
     2   1 1 0     -0.832663      0.000000     -1.611684
     2   1 0 1      0.000000      0.000000      0.000000
     2   0 2 0     -2.971689      0.000000     11.874068
     2   0 1 1      0.000000      0.000000      0.000000

 CCSD total energy / hartree       =       -76.137990681470498
 Total times  cpu:       54.8s     wall:       59.4s
