============================== echo of input deck ==============================
 echo
 start H2O
 title "H2O"

 memory total 24 gb

 geometry units bohr
 symmetry c1
        O  0.00000000  0.00000000  0.00000000
        H  0.00000000  3.5947275  0.00000000
        H  1.72558000 -0.64860000  0.00000000
 end

 basis spherical
   * library 6-311++G**
 end

 mcscf
   active  8
   actelec 10
   multiplicity 1
   maxiter 40
   vectors input h2o.mos
   vectors output h2o.mos
 end

 task mcscf

 scf
   vectors input h2o.mos
   vectors output h2o-trash.mos
   noscf
 end

 tce
   2eorb
   2emet 13
   ccsd
   maxiter 300
 end

# set tce:print_integrals T
# set tce:qorb 8
# set tce:qela 5
# set tce:qelb 5

 set tce:qducc T
 set tce:nactv 3
 set tce:nonhf T
 set tce:ducc_model 6

 set tce:printtol 0.02

 task tce
================================================================================

 Output coordinates in a.u. (scale by  1.000000000 to convert to a.u.)

  No.       Tag          Charge          X              Y              Z
 ---- ---------------- ---------- -------------- -------------- --------------
    1 O                    8.0000    -0.17255800    -0.29461275     0.00000000
    2 H                    1.0000    -0.17255800     3.30011475     0.00000000
    3 H                    1.0000     1.55302200    -0.94321275     0.00000000

 Vector    1  Occ=1.999992D+00  E=-2.061641D+01  Symmetry=a

 Vector    2  Occ=1.998321D+00  E=-1.309569D+00  Symmetry=a

 Vector    3  Occ=1.981581D+00  E=-6.735098D-01  Symmetry=a

 Vector    4  Occ=1.973595D+00  E=-5.449377D-01  Symmetry=a

 Vector    5  Occ=1.673843D+00  E=-4.528197D-01  Symmetry=a

 Vector    6  Occ=3.273415D-01  E=-1.229550D-01  Symmetry=a

 Vector    7  Occ=2.736414D-02  E=-2.649900D-02  Symmetry=a

 Vector    8  Occ=1.796238D-02  E=-1.437086D-02  Symmetry=a

 Vector    9  Occ=0.000000D+00  E= 7.573446D-02  Symmetry=a

 Vector   10  Occ=0.000000D+00  E= 9.116779D-02  Symmetry=a

 Vector   11  Occ=0.000000D+00  E= 2.376302D-01  Symmetry=a

 Vector   12  Occ=0.000000D+00  E= 2.825566D-01  Symmetry=a

 Vector   13  Occ=0.000000D+00  E= 3.200575D-01  Symmetry=a

 Vector   14  Occ=0.000000D+00  E= 4.751492D-01  Symmetry=a

 Vector   15  Occ=0.000000D+00  E= 5.275056D-01  Symmetry=a

 Vector   16  Occ=0.000000D+00  E= 6.315930D-01  Symmetry=a

 Vector   17  Occ=0.000000D+00  E= 1.073021D+00  Symmetry=a

 Vector   18  Occ=0.000000D+00  E= 1.214063D+00  Symmetry=a

         Total SCF energy =    -75.823636838087

 Vector    2  Occ=2.000000D+00  E=-1.309569D+00

 Vector    3  Occ=2.000000D+00  E=-6.735098D-01

 Vector    4  Occ=2.000000D+00  E=-5.449377D-01

 Vector    5  Occ=2.000000D+00  E=-4.528197D-01

 Vector    6  Occ=0.000000D+00  E=-1.229550D-01

 Vector    7  Occ=0.000000D+00  E=-2.649900D-02

 Vector    8  Occ=0.000000D+00  E=-1.437086D-02

 Vector    9  Occ=0.000000D+00  E= 7.573446D-02

 Vector   10  Occ=0.000000D+00  E= 9.116779D-02

 Vector   11  Occ=0.000000D+00  E= 2.376302D-01

 Vector   12  Occ=0.000000D+00  E= 2.825566D-01

 Vector   13  Occ=0.000000D+00  E= 3.200575D-01

 Vector   14  Occ=0.000000D+00  E= 4.751492D-01

 Vector   15  Occ=0.000000D+00  E= 5.275056D-01

       Multipole analysis of the density wrt the origin
       ------------------------------------------------

     L   x y z        total         open         nuclear
     -   - - -        -----         ----         -------
     0   0 0 0     -0.000000      0.000000     10.000000

     1   1 0 0      0.626702      0.000000     -0.000000
     1   0 1 0      0.227069      0.000000      0.000000
     1   0 0 1     -0.000000      0.000000      0.000000

     2   2 0 0     -4.654401      0.000000      2.679864
     2   1 1 0     -0.817919      0.000000     -1.627589
     2   1 0 1      0.000000      0.000000      0.000000
     2   0 2 0     -3.012054      0.000000     12.474781
     2   0 1 1      0.000000      0.000000      0.000000

 CCSD total energy / hartree       =       -76.132514365152872
 Total times  cpu:       59.2s     wall:       63.7s
