============================== echo of input deck ==============================
 echo
 start H2O
 title "H2O"

 memory total 24 gb

 geometry units bohr
 symmetry c1
        O  0.00000000  0.00000000  0.00000000
        H  0.00000000  3.6869  0.00000000
        H  1.72558000 -0.64860000  0.00000000
 end

 basis spherical
   * library 6-311++G**
 end

 mcscf
   active  8
   actelec 10
   multiplicity 1
   maxiter 40
   vectors input h2o.mos
   vectors output h2o.mos
 end

 task mcscf

 scf
   vectors input h2o.mos
   vectors output h2o-trash.mos
   noscf
 end

 tce
   2eorb
   2emet 13
   ccsd
   maxiter 300
 end

# set tce:print_integrals T
# set tce:qorb 8
# set tce:qela 5
# set tce:qelb 5

 set tce:qducc T
 set tce:nactv 3
 set tce:nonhf T
 set tce:ducc_model 6

 set tce:printtol 0.02

 task tce
================================================================================

 Output coordinates in a.u. (scale by  1.000000000 to convert to a.u.)

  No.       Tag          Charge          X              Y              Z
 ---- ---------------- ---------- -------------- -------------- --------------
    1 O                    8.0000    -0.17255800    -0.30383000     0.00000000
    2 H                    1.0000    -0.17255800     3.38307000     0.00000000
    3 H                    1.0000     1.55302200    -0.95243000     0.00000000

 Vector    1  Occ=1.999992D+00  E=-2.061789D+01  Symmetry=a

 Vector    2  Occ=1.998384D+00  E=-1.310666D+00  Symmetry=a

 Vector    3  Occ=1.981949D+00  E=-6.745708D-01  Symmetry=a

 Vector    4  Occ=1.973678D+00  E=-5.465253D-01  Symmetry=a

 Vector    5  Occ=1.640178D+00  E=-4.436799D-01  Symmetry=a

 Vector    6  Occ=3.608871D-01  E=-1.314618D-01  Symmetry=a

 Vector    7  Occ=2.730021D-02  E=-2.649158D-02  Symmetry=a

 Vector    8  Occ=1.763226D-02  E=-1.423852D-02  Symmetry=a

 Vector    9  Occ=0.000000D+00  E= 7.535352D-02  Symmetry=a

 Vector   10  Occ=0.000000D+00  E= 9.178929D-02  Symmetry=a

 Vector   11  Occ=0.000000D+00  E= 2.375469D-01  Symmetry=a

 Vector   12  Occ=0.000000D+00  E= 2.822611D-01  Symmetry=a

 Vector   13  Occ=0.000000D+00  E= 3.196176D-01  Symmetry=a

 Vector   14  Occ=0.000000D+00  E= 4.728827D-01  Symmetry=a

 Vector   15  Occ=0.000000D+00  E= 5.319182D-01  Symmetry=a

 Vector   16  Occ=0.000000D+00  E= 6.264009D-01  Symmetry=a

 Vector   17  Occ=0.000000D+00  E= 1.075114D+00  Symmetry=a

 Vector   18  Occ=0.000000D+00  E= 1.207180D+00  Symmetry=a

         Total SCF energy =    -75.813504858909

 Vector    2  Occ=2.000000D+00  E=-1.310666D+00

 Vector    3  Occ=2.000000D+00  E=-6.745708D-01

 Vector    4  Occ=2.000000D+00  E=-5.465253D-01

 Vector    5  Occ=2.000000D+00  E=-4.436799D-01

 Vector    6  Occ=0.000000D+00  E=-1.314618D-01

 Vector    7  Occ=0.000000D+00  E=-2.649158D-02

 Vector    8  Occ=0.000000D+00  E=-1.423852D-02

 Vector    9  Occ=0.000000D+00  E= 7.535352D-02

 Vector   10  Occ=0.000000D+00  E= 9.178929D-02

 Vector   11  Occ=0.000000D+00  E= 2.375469D-01

 Vector   12  Occ=0.000000D+00  E= 2.822611D-01

 Vector   13  Occ=0.000000D+00  E= 3.196176D-01

 Vector   14  Occ=0.000000D+00  E= 4.728827D-01

 Vector   15  Occ=0.000000D+00  E= 5.319182D-01

       Multipole analysis of the density wrt the origin
       ------------------------------------------------

     L   x y z        total         open         nuclear
     -   - - -        -----         ----         -------
     0   0 0 0     -0.000000      0.000000     10.000000

     1   1 0 0      0.627717      0.000000     -0.000000
     1   0 1 0      0.195117      0.000000     -0.000000
     1   0 0 1     -0.000000      0.000000      0.000000

     2   2 0 0     -4.655001      0.000000      2.679864
     2   1 1 0     -0.803115      0.000000     -1.643494
     2   1 0 1      0.000000      0.000000      0.000000
     2   0 2 0     -3.055374      0.000000     13.090787
     2   0 1 1      0.000000      0.000000      0.000000

 CCSD total energy / hartree       =       -76.127547879021918
 Total times  cpu:       55.2s     wall:       59.6s
