============================== echo of input deck ==============================
 echo
 start H2O
 title "H2O"

 memory total 24 gb

 geometry units bohr
 symmetry c1
        O  0.00000000  0.00000000  0.00000000
        H  0.00000000  3.7790725  0.00000000
        H  1.72558000 -0.64860000  0.00000000
 end

 basis spherical
   * library 6-311++G**
 end

 mcscf
   active  8
   actelec 10
   multiplicity 1
   maxiter 40
   vectors input h2o.mos
   vectors output h2o.mos
 end

 task mcscf

 scf
   vectors input h2o.mos
   vectors output h2o-trash.mos
   noscf
 end

 tce
   2eorb
   2emet 13
   ccsd
   maxiter 300
 end

# set tce:print_integrals T
# set tce:qorb 8
# set tce:qela 5
# set tce:qelb 5

 set tce:qducc T
 set tce:nactv 3
 set tce:nonhf T
 set tce:ducc_model 6

 set tce:printtol 0.02

 task tce
================================================================================

 Output coordinates in a.u. (scale by  1.000000000 to convert to a.u.)

  No.       Tag          Charge          X              Y              Z
 ---- ---------------- ---------- -------------- -------------- --------------
    1 O                    8.0000    -0.17255800    -0.31304725     0.00000000
    2 H                    1.0000    -0.17255800     3.46602525     0.00000000
    3 H                    1.0000     1.55302200    -0.96164725     0.00000000

 Vector    1  Occ=1.999992D+00  E=-2.061914D+01  Symmetry=a

 Vector    2  Occ=1.998445D+00  E=-1.311656D+00  Symmetry=a

 Vector    3  Occ=1.982287D+00  E=-6.755439D-01  Symmetry=a

 Vector    4  Occ=1.973759D+00  E=-5.479355D-01  Symmetry=a

 Vector    5  Occ=1.606186D+00  E=-4.348263D-01  Symmetry=a

 Vector    6  Occ=3.947646D-01  E=-1.398777D-01  Symmetry=a

 Vector    7  Occ=2.723629D-02  E=-2.648206D-02  Symmetry=a

 Vector    8  Occ=1.733008D-02  E=-1.411927D-02  Symmetry=a

 Vector    9  Occ=0.000000D+00  E= 7.497036D-02  Symmetry=a

 Vector   10  Occ=0.000000D+00  E= 9.238001D-02  Symmetry=a

 Vector   11  Occ=0.000000D+00  E= 2.374716D-01  Symmetry=a

 Vector   12  Occ=0.000000D+00  E= 2.819456D-01  Symmetry=a

 Vector   13  Occ=0.000000D+00  E= 3.190932D-01  Symmetry=a

 Vector   14  Occ=0.000000D+00  E= 4.707507D-01  Symmetry=a

 Vector   15  Occ=0.000000D+00  E= 5.361859D-01  Symmetry=a

 Vector   16  Occ=0.000000D+00  E= 6.214556D-01  Symmetry=a

 Vector   17  Occ=0.000000D+00  E= 1.076801D+00  Symmetry=a

 Vector   18  Occ=0.000000D+00  E= 1.202085D+00  Symmetry=a

         Total SCF energy =    -75.803731311190

 Vector    2  Occ=2.000000D+00  E=-1.311656D+00

 Vector    3  Occ=2.000000D+00  E=-6.755439D-01

 Vector    4  Occ=2.000000D+00  E=-5.479355D-01

 Vector    5  Occ=2.000000D+00  E=-4.348263D-01

 Vector    6  Occ=0.000000D+00  E=-1.398777D-01

 Vector    7  Occ=0.000000D+00  E=-2.648206D-02

 Vector    8  Occ=0.000000D+00  E=-1.411927D-02

 Vector    9  Occ=0.000000D+00  E= 7.497036D-02

 Vector   10  Occ=0.000000D+00  E= 9.238001D-02

 Vector   11  Occ=0.000000D+00  E= 2.374716D-01

 Vector   12  Occ=0.000000D+00  E= 2.819456D-01

 Vector   13  Occ=0.000000D+00  E= 3.190932D-01

 Vector   14  Occ=0.000000D+00  E= 4.707507D-01

 Vector   15  Occ=0.000000D+00  E= 5.361859D-01

       Multipole analysis of the density wrt the origin
       ------------------------------------------------

     L   x y z        total         open         nuclear
     -   - - -        -----         ----         -------
     0   0 0 0     -0.000000      0.000000     10.000000

     1   1 0 0      0.628930      0.000000     -0.000000
     1   0 1 0      0.164413      0.000000      0.000000
     1   0 0 1     -0.000000      0.000000      0.000000

     2   2 0 0     -4.654523      0.000000      2.679864
     2   1 1 0     -0.788493      0.000000     -1.659399
     2   1 0 1      0.000000      0.000000      0.000000
     2   0 2 0     -3.100632      0.000000     13.722085
     2   0 1 1      0.000000      0.000000      0.000000

 CCSD total energy / hartree       =       -76.123060123827472
 Total times  cpu:       55.2s     wall:       59.7s
