============================== echo of input deck ==============================
 echo
 start H2O
 title "H2O"

 memory total 24 gb

 geometry units bohr
 symmetry c1
        O  0.00000000  0.00000000  0.00000000
        H  0.00000000  3.871245  0.00000000
        H  1.72558000 -0.64860000  0.00000000
 end

 basis spherical
   * library 6-311++G**
 end

 mcscf
   active  8
   actelec 10
   multiplicity 1
   maxiter 40
   vectors input h2o.mos
   vectors output h2o.mos
 end

 task mcscf

 scf
   vectors input h2o.mos
   vectors output h2o-trash.mos
   noscf
 end

 tce
   2eorb
   2emet 13
   ccsd
   maxiter 300
 end

# set tce:print_integrals T
# set tce:qorb 8
# set tce:qela 5
# set tce:qelb 5

 set tce:qducc T
 set tce:nactv 3
 set tce:nonhf T
 set tce:ducc_model 6

 set tce:printtol 0.02

 task tce
================================================================================

 Output coordinates in a.u. (scale by  1.000000000 to convert to a.u.)

  No.       Tag          Charge          X              Y              Z
 ---- ---------------- ---------- -------------- -------------- --------------
    1 O                    8.0000    -0.17255800    -0.32226450     0.00000000
    2 H                    1.0000    -0.17255800     3.54898050     0.00000000
    3 H                    1.0000     1.55302200    -0.97086450     0.00000000

 Vector    1  Occ=1.999992D+00  E=-2.062016D+01  Symmetry=a

 Vector    2  Occ=1.998503D+00  E=-1.312533D+00  Symmetry=a

 Vector    3  Occ=1.982593D+00  E=-6.764137D-01  Symmetry=a

 Vector    4  Occ=1.973836D+00  E=-5.491698D-01  Symmetry=a

 Vector    5  Occ=1.572245D+00  E=-4.263091D-01  Symmetry=a

 Vector    6  Occ=4.285997D-01  E=-1.481196D-01  Symmetry=a

 Vector    7  Occ=2.717422D-02  E=-2.647097D-02  Symmetry=a

 Vector    8  Occ=1.705676D-02  E=-1.401246D-02  Symmetry=a

 Vector    9  Occ=0.000000D+00  E= 7.459411D-02  Symmetry=a

 Vector   10  Occ=0.000000D+00  E= 9.293399D-02  Symmetry=a

 Vector   11  Occ=0.000000D+00  E= 2.374102D-01  Symmetry=a

 Vector   12  Occ=0.000000D+00  E= 2.816179D-01  Symmetry=a

 Vector   13  Occ=0.000000D+00  E= 3.184885D-01  Symmetry=a

 Vector   14  Occ=0.000000D+00  E= 4.687681D-01  Symmetry=a

 Vector   15  Occ=0.000000D+00  E= 5.402473D-01  Symmetry=a

 Vector   16  Occ=0.000000D+00  E= 6.168407D-01  Symmetry=a

 Vector   17  Occ=0.000000D+00  E= 1.078105D+00  Symmetry=a

 Vector   18  Occ=0.000000D+00  E= 1.198985D+00  Symmetry=a

         Total SCF energy =    -75.794312391694

 Vector    2  Occ=2.000000D+00  E=-1.312533D+00

 Vector    3  Occ=2.000000D+00  E=-6.764137D-01

 Vector    4  Occ=2.000000D+00  E=-5.491698D-01

 Vector    5  Occ=2.000000D+00  E=-4.263091D-01

 Vector    6  Occ=0.000000D+00  E=-1.481196D-01

 Vector    7  Occ=0.000000D+00  E=-2.647097D-02

 Vector    8  Occ=0.000000D+00  E=-1.401246D-02

 Vector    9  Occ=0.000000D+00  E= 7.459411D-02

 Vector   10  Occ=0.000000D+00  E= 9.293399D-02

 Vector   11  Occ=0.000000D+00  E= 2.374102D-01

 Vector   12  Occ=0.000000D+00  E= 2.816179D-01

 Vector   13  Occ=0.000000D+00  E= 3.184885D-01

 Vector   14  Occ=0.000000D+00  E= 4.687681D-01

 Vector   15  Occ=0.000000D+00  E= 5.402473D-01

       Multipole analysis of the density wrt the origin
       ------------------------------------------------

     L   x y z        total         open         nuclear
     -   - - -        -----         ----         -------
     0   0 0 0     -0.000000      0.000000     10.000000

     1   1 0 0      0.630307      0.000000     -0.000000
     1   0 1 0      0.135163      0.000000      0.000000
     1   0 0 1     -0.000000      0.000000      0.000000

     2   2 0 0     -4.653088      0.000000      2.679864
     2   1 1 0     -0.774235      0.000000     -1.675304
     2   1 0 1      0.000000      0.000000      0.000000
     2   0 2 0     -3.146980      0.000000     14.368676
     2   0 1 1      0.000000      0.000000      0.000000

 CCSD total energy / hartree       =       -76.119018657818245
 Total times  cpu:       54.0s     wall:       58.3s
