============================== echo of input deck ==============================
 echo
 start H2O
 title "H2O"

 memory total 24 gb

 geometry units bohr
 symmetry c1
        O  0.00000000  0.00000000  0.00000000
        H  0.00000000  4.1477625  0.00000000
        H  1.72558000 -0.64860000  0.00000000
 end

 basis spherical
   * library 6-311++G**
 end

 mcscf
   active  8
   actelec 10
   multiplicity 1
   maxiter 40
   vectors input h2o.mos
   vectors output h2o.mos
 end

 task mcscf

 scf
   vectors input h2o.mos
   vectors output h2o-trash.mos
   noscf
 end

 tce
   2eorb
   2emet 13
   ccsd
   maxiter 300
 end

# set tce:print_integrals T
# set tce:qorb 8
# set tce:qela 5
# set tce:qelb 5

 set tce:qducc T
 set tce:nactv 3
 set tce:nonhf T
 set tce:ducc_model 6

 set tce:printtol 0.02

 task tce
================================================================================

 Output coordinates in a.u. (scale by  1.000000000 to convert to a.u.)

  No.       Tag          Charge          X              Y              Z
 ---- ---------------- ---------- -------------- -------------- --------------
    1 O                    8.0000    -0.17255800    -0.34991625     0.00000000
    2 H                    1.0000    -0.17255800     3.79784625     0.00000000
    3 H                    1.0000     1.55302200    -0.99851625     0.00000000

 Vector    1  Occ=1.999992D+00  E=-2.062214D+01  Symmetry=a

 Vector    2  Occ=1.998650D+00  E=-1.314504D+00  Symmetry=a

 Vector    3  Occ=1.983327D+00  E=-6.783821D-01  Symmetry=a

 Vector    4  Occ=1.974038D+00  E=-5.519155D-01  Symmetry=a

 Vector    5  Occ=1.473844D+00  E=-4.031232D-01  Symmetry=a

 Vector    6  Occ=5.267340D-01  E=-1.711604D-01  Symmetry=a

 Vector    7  Occ=2.701018D-02  E=-2.643298D-02  Symmetry=a

 Vector    8  Occ=1.640380D-02  E=-1.375815D-02  Symmetry=a

 Vector    9  Occ=0.000000D+00  E= 7.355282D-02  Symmetry=a

 Vector   10  Occ=0.000000D+00  E= 9.435438D-02  Symmetry=a

 Vector   11  Occ=0.000000D+00  E= 2.373430D-01  Symmetry=a

 Vector   12  Occ=0.000000D+00  E= 2.805978D-01  Symmetry=a

 Vector   13  Occ=0.000000D+00  E= 3.162377D-01  Symmetry=a

 Vector   14  Occ=0.000000D+00  E= 4.637431D-01  Symmetry=a

 Vector   15  Occ=0.000000D+00  E= 5.506038D-01  Symmetry=a

 Vector   16  Occ=0.000000D+00  E= 6.053046D-01  Symmetry=a

 Vector   17  Occ=0.000000D+00  E= 1.080207D+00  Symmetry=a

 Vector   18  Occ=0.000000D+00  E= 1.201339D+00  Symmetry=a

         Total SCF energy =    -75.768139707636

 Vector    2  Occ=2.000000D+00  E=-1.314504D+00

 Vector    3  Occ=2.000000D+00  E=-6.783821D-01

 Vector    4  Occ=2.000000D+00  E=-5.519155D-01

 Vector    5  Occ=2.000000D+00  E=-4.031232D-01

 Vector    6  Occ=0.000000D+00  E=-1.711604D-01

 Vector    7  Occ=0.000000D+00  E=-2.643298D-02

 Vector    8  Occ=0.000000D+00  E=-1.375815D-02

 Vector    9  Occ=0.000000D+00  E= 7.355282D-02

 Vector   10  Occ=0.000000D+00  E= 9.435438D-02

 Vector   11  Occ=0.000000D+00  E= 2.373430D-01

 Vector   12  Occ=0.000000D+00  E= 2.805978D-01

 Vector   13  Occ=0.000000D+00  E= 3.162377D-01

 Vector   14  Occ=0.000000D+00  E= 4.637431D-01

 Vector   15  Occ=0.000000D+00  E= 5.506038D-01

       Multipole analysis of the density wrt the origin
       ------------------------------------------------

     L   x y z        total         open         nuclear
     -   - - -        -----         ----         -------
     0   0 0 0     -0.000000      0.000000     10.000000

     1   1 0 0      0.635082      0.000000     -0.000000
     1   0 1 0      0.057065      0.000000      0.000000
     1   0 0 1     -0.000000      0.000000      0.000000

     2   2 0 0     -4.644275      0.000000      2.679864
     2   1 1 0     -0.735106      0.000000     -1.723020
     2   1 0 1      0.000000      0.000000      0.000000
     2   0 2 0     -3.286969      0.000000     16.400202
     2   0 1 1      0.000000      0.000000      0.000000

 CCSD total energy / hartree       =       -76.109244597090637
 Total times  cpu:       51.8s     wall:       56.1s
