============================== echo of input deck ==============================
 echo
 start H2O
 title "H2O"

 memory total 24 gb

 geometry units bohr
 symmetry c1
        O  0.00000000  0.00000000  0.00000000
        H  0.00000000  4.42428  0.00000000
        H  1.72558000 -0.64860000  0.00000000
 end

 basis spherical
   * library 6-311++G**
 end

 mcscf
   active  8
   actelec 10
   multiplicity 1
   maxiter 40
   vectors input h2o.mos
   vectors output h2o.mos
 end

 task mcscf

 scf
   vectors input h2o.mos
   vectors output h2o-trash.mos
   noscf
 end

 tce
   2eorb
   2emet 13
   ccsd
   maxiter 300
 end

# set tce:print_integrals T
# set tce:qorb 8
# set tce:qela 5
# set tce:qelb 5

 set tce:qducc T
 set tce:nactv 3
 set tce:nonhf T
 set tce:ducc_model 6

 set tce:printtol 0.02

 task tce
================================================================================

 Output coordinates in a.u. (scale by  1.000000000 to convert to a.u.)

  No.       Tag          Charge          X              Y              Z
 ---- ---------------- ---------- -------------- -------------- --------------
    1 O                    8.0000    -0.17255800    -0.37756800     0.00000000
    2 H                    1.0000    -0.17255800     4.04671200     0.00000000
    3 H                    1.0000     1.55302200    -1.02616800     0.00000000

 Vector    1  Occ=1.999993D+00  E=-2.062300D+01  Symmetry=a

 Vector    2  Occ=1.998759D+00  E=-1.315658D+00  Symmetry=a

 Vector    3  Occ=1.983823D+00  E=-6.795319D-01  Symmetry=a

 Vector    4  Occ=1.974186D+00  E=-5.535295D-01  Symmetry=a

 Vector    5  Occ=1.385123D+00  E=-3.838454D-01  Symmetry=a

 Vector    6  Occ=6.152627D-01  E=-1.908466D-01  Symmetry=a

 Vector    7  Occ=2.688791D-02  E=-2.639583D-02  Symmetry=a

 Vector    8  Occ=1.596538D-02  E=-1.358238D-02  Symmetry=a

 Vector    9  Occ=0.000000D+00  E= 7.266195D-02  Symmetry=a

 Vector   10  Occ=0.000000D+00  E= 9.542563D-02  Symmetry=a

 Vector   11  Occ=0.000000D+00  E= 2.374648D-01  Symmetry=a

 Vector   12  Occ=0.000000D+00  E= 2.795022D-01  Symmetry=a

 Vector   13  Occ=0.000000D+00  E= 3.134403D-01  Symmetry=a

 Vector   14  Occ=0.000000D+00  E= 4.599533D-01  Symmetry=a

 Vector   15  Occ=0.000000D+00  E= 5.572934D-01  Symmetry=a

 Vector   16  Occ=0.000000D+00  E= 5.969506D-01  Symmetry=a

 Vector   17  Occ=0.000000D+00  E= 1.080800D+00  Symmetry=a

 Vector   18  Occ=0.000000D+00  E= 1.215825D+00  Symmetry=a

         Total SCF energy =    -75.744981477986

 Vector    2  Occ=2.000000D+00  E=-1.315658D+00

 Vector    3  Occ=2.000000D+00  E=-6.795319D-01

 Vector    4  Occ=2.000000D+00  E=-5.535295D-01

 Vector    5  Occ=2.000000D+00  E=-3.838454D-01

 Vector    6  Occ=0.000000D+00  E=-1.908466D-01

 Vector    7  Occ=0.000000D+00  E=-2.639583D-02

 Vector    8  Occ=0.000000D+00  E=-1.358238D-02

 Vector    9  Occ=0.000000D+00  E= 7.266195D-02

 Vector   10  Occ=0.000000D+00  E= 9.542563D-02

 Vector   11  Occ=0.000000D+00  E= 2.374648D-01

 Vector   12  Occ=0.000000D+00  E= 2.795022D-01

 Vector   13  Occ=0.000000D+00  E= 3.134403D-01

 Vector   14  Occ=0.000000D+00  E= 4.599533D-01

 Vector   15  Occ=0.000000D+00  E= 5.572934D-01

       Multipole analysis of the density wrt the origin
       ------------------------------------------------

     L   x y z        total         open         nuclear
     -   - - -        -----         ----         -------
     0   0 0 0     -0.000000      0.000000     10.000000

     1   1 0 0      0.640200      0.000000     -0.000000
     1   0 1 0     -0.006566      0.000000      0.000000
     1   0 0 1     -0.000000      0.000000      0.000000

     2   2 0 0     -4.631236      0.000000      2.679864
     2   1 1 0     -0.703276      0.000000     -1.770735
     2   1 0 1      0.000000      0.000000      0.000000
     2   0 2 0     -3.422116      0.000000     18.569360
     2   0 1 1      0.000000      0.000000      0.000000

 CCSD total energy / hartree       =       -76.102335533318097
 Total times  cpu:       61.7s     wall:       65.8s
