============================== echo of input deck ==============================
 echo
 start H2O
 title "H2O"

 memory total 24 gb

 geometry units bohr
 symmetry c1
        O  0.00000000  0.00000000  0.00000000
        H  0.00000000  4.7007975  0.00000000
        H  1.72558000 -0.64860000  0.00000000
 end

 basis spherical
   * library 6-311++G**
 end

 mcscf
   active  8
   actelec 10
   multiplicity 1
   maxiter 40
   vectors input h2o.mos
   vectors output h2o.mos
 end

 task mcscf

 scf
   vectors input h2o.mos
   vectors output h2o-trash.mos
   noscf
 end

 tce
   2eorb
   2emet 13
   ccsd
   maxiter 300
 end

# set tce:print_integrals T
# set tce:qorb 8
# set tce:qela 5
# set tce:qelb 5

 set tce:qducc T
 set tce:nactv 3
 set tce:nonhf T
 set tce:ducc_model 6

 set tce:printtol 0.02

 task tce
================================================================================

 Output coordinates in a.u. (scale by  1.000000000 to convert to a.u.)

  No.       Tag          Charge          X              Y              Z
 ---- ---------------- ---------- -------------- -------------- --------------
    1 O                    8.0000    -0.17255800    -0.40521975     0.00000000
    2 H                    1.0000    -0.17255800     4.29557775     0.00000000
    3 H                    1.0000     1.55302200    -1.05381975     0.00000000

 Vector    1  Occ=1.999993D+00  E=-2.062322D+01  Symmetry=a

 Vector    2  Occ=1.998835D+00  E=-1.316268D+00  Symmetry=a

 Vector    3  Occ=1.984147D+00  E=-6.801287D-01  Symmetry=a

 Vector    4  Occ=1.974288D+00  E=-5.544012D-01  Symmetry=a

 Vector    5  Occ=1.308960D+00  E=-3.685103D-01  Symmetry=a

 Vector    6  Occ=6.912941D-01  E=-2.067745D-01  Symmetry=a

 Vector    7  Occ=2.680282D-02  E=-2.636385D-02  Symmetry=a

 Vector    8  Occ=1.568067D-02  E=-1.346600D-02  Symmetry=a

 Vector    9  Occ=0.000000D+00  E= 7.190213D-02  Symmetry=a

 Vector   10  Occ=0.000000D+00  E= 9.619598D-02  Symmetry=a

 Vector   11  Occ=0.000000D+00  E= 2.377421D-01  Symmetry=a

 Vector   12  Occ=0.000000D+00  E= 2.782070D-01  Symmetry=a

 Vector   13  Occ=0.000000D+00  E= 3.102930D-01  Symmetry=a

 Vector   14  Occ=0.000000D+00  E= 4.572540D-01  Symmetry=a

 Vector   15  Occ=0.000000D+00  E= 5.600598D-01  Symmetry=a

 Vector   16  Occ=0.000000D+00  E= 5.916052D-01  Symmetry=a

 Vector   17  Occ=0.000000D+00  E= 1.080779D+00  Symmetry=a

 Vector   18  Occ=0.000000D+00  E= 1.232285D+00  Symmetry=a

         Total SCF energy =    -75.724661981578

 Vector    2  Occ=2.000000D+00  E=-1.316268D+00

 Vector    3  Occ=2.000000D+00  E=-6.801287D-01

 Vector    4  Occ=2.000000D+00  E=-5.544012D-01

 Vector    5  Occ=2.000000D+00  E=-3.685103D-01

 Vector    6  Occ=0.000000D+00  E=-2.067745D-01

 Vector    7  Occ=0.000000D+00  E=-2.636385D-02

 Vector    8  Occ=0.000000D+00  E=-1.346600D-02

 Vector    9  Occ=0.000000D+00  E= 7.190213D-02

 Vector   10  Occ=0.000000D+00  E= 9.619598D-02

 Vector   11  Occ=0.000000D+00  E= 2.377421D-01

 Vector   12  Occ=0.000000D+00  E= 2.782070D-01

 Vector   13  Occ=0.000000D+00  E= 3.102930D-01

 Vector   14  Occ=0.000000D+00  E= 4.572540D-01

 Vector   15  Occ=0.000000D+00  E= 5.600598D-01

       Multipole analysis of the density wrt the origin
       ------------------------------------------------

     L   x y z        total         open         nuclear
     -   - - -        -----         ----         -------
     0   0 0 0     -0.000000      0.000000     10.000000

     1   1 0 0      0.645082      0.000000     -0.000000
     1   0 1 0     -0.057497      0.000000     -0.000000
     1   0 0 1     -0.000000      0.000000      0.000000

     2   2 0 0     -4.616611      0.000000      2.679864
     2   1 1 0     -0.679672      0.000000     -1.818450
     2   1 0 1      0.000000      0.000000      0.000000
     2   0 2 0     -3.549988      0.000000     20.876149
     2   0 1 1      0.000000      0.000000      0.000000

 CCSD total energy / hartree       =       -76.097531847219386
 Total times  cpu:       66.8s     wall:       70.5s
