============================== echo of input deck ==============================
 echo
 start H2O
 title "H2O"

 memory total 24 gb

 geometry units bohr
 symmetry c1
        O  0.00000000  0.00000000  0.00000000
        H  0.00000000  4.8851425  0.00000000
        H  1.72558000 -0.64860000  0.00000000
 end

 basis spherical
   * library 6-311++G**
 end

 mcscf
   active  8
   actelec 10
   multiplicity 1
   maxiter 40
   vectors input h2o.mos
   vectors output h2o.mos
 end

 task mcscf

 scf
   vectors input h2o.mos
   vectors output h2o-trash.mos
   noscf
 end

 tce
   2eorb
   2emet 13
   ccsd
   maxiter 300
 end

# set tce:print_integrals T
# set tce:qorb 8
# set tce:qela 5
# set tce:qelb 5

 set tce:qducc T
 set tce:nactv 3
 set tce:nonhf T
 set tce:ducc_model 6

 set tce:printtol 0.02

 task tce
================================================================================

 Output coordinates in a.u. (scale by  1.000000000 to convert to a.u.)

  No.       Tag          Charge          X              Y              Z
 ---- ---------------- ---------- -------------- -------------- --------------
    1 O                    8.0000    -0.17255800    -0.42365425     0.00000000
    2 H                    1.0000    -0.17255800     4.46148825     0.00000000
    3 H                    1.0000     1.55302200    -1.07225425     0.00000000

 Vector    1  Occ=1.999993D+00  E=-2.062320D+01  Symmetry=a

 Vector    2  Occ=1.998872D+00  E=-1.316485D+00  Symmetry=a

 Vector    3  Occ=1.984294D+00  E=-6.803339D-01  Symmetry=a

 Vector    4  Occ=1.974335D+00  E=-5.547246D-01  Symmetry=a

 Vector    5  Occ=1.265408D+00  E=-3.603189D-01  Symmetry=a

 Vector    6  Occ=7.347829D-01  E=-2.153639D-01  Symmetry=a

 Vector    7  Occ=2.676298D-02  E=-2.634655D-02  Symmetry=a

 Vector    8  Occ=1.555196D-02  E=-1.341175D-02  Symmetry=a

 Vector    9  Occ=0.000000D+00  E= 7.145101D-02  Symmetry=a

 Vector   10  Occ=0.000000D+00  E= 9.657379D-02  Symmetry=a

 Vector   11  Occ=0.000000D+00  E= 2.379746D-01  Symmetry=a

 Vector   12  Occ=0.000000D+00  E= 2.771421D-01  Symmetry=a

 Vector   13  Occ=0.000000D+00  E= 3.081501D-01  Symmetry=a

 Vector   14  Occ=0.000000D+00  E= 4.559485D-01  Symmetry=a

 Vector   15  Occ=0.000000D+00  E= 5.601291D-01  Symmetry=a

 Vector   16  Occ=0.000000D+00  E= 5.892376D-01  Symmetry=a

 Vector   17  Occ=0.000000D+00  E= 1.080673D+00  Symmetry=a

 Vector   18  Occ=0.000000D+00  E= 1.240167D+00  Symmetry=a

         Total SCF energy =    -75.712592752795

 Vector    2  Occ=2.000000D+00  E=-1.316485D+00

 Vector    3  Occ=2.000000D+00  E=-6.803339D-01

 Vector    4  Occ=2.000000D+00  E=-5.547246D-01

 Vector    5  Occ=2.000000D+00  E=-3.603189D-01

 Vector    6  Occ=0.000000D+00  E=-2.153639D-01

 Vector    7  Occ=0.000000D+00  E=-2.634655D-02

 Vector    8  Occ=0.000000D+00  E=-1.341175D-02

 Vector    9  Occ=0.000000D+00  E= 7.145101D-02

 Vector   10  Occ=0.000000D+00  E= 9.657379D-02

 Vector   11  Occ=0.000000D+00  E= 2.379746D-01

 Vector   12  Occ=0.000000D+00  E= 2.771421D-01

 Vector   13  Occ=0.000000D+00  E= 3.081501D-01

 Vector   14  Occ=0.000000D+00  E= 4.559485D-01

 Vector   15  Occ=0.000000D+00  E= 5.601291D-01

       Multipole analysis of the density wrt the origin
       ------------------------------------------------

     L   x y z        total         open         nuclear
     -   - - -        -----         ----         -------
     0   0 0 0     -0.000000      0.000000     10.000000

     1   1 0 0      0.648041      0.000000     -0.000000
     1   0 1 0     -0.085520      0.000000      0.000000
     1   0 0 1     -0.000000      0.000000      0.000000

     2   2 0 0     -4.606932      0.000000      2.679864
     2   1 1 0     -0.668324      0.000000     -1.850260
     2   1 0 1      0.000000      0.000000      0.000000
     2   0 2 0     -3.630864      0.000000     22.490470
     2   0 1 1      0.000000      0.000000      0.000000

 CCSD total energy / hartree       =       -76.095187506696149
 Total times  cpu:       69.8s     wall:       73.3s
