============================== echo of input deck ==============================
 echo
 start H2O
 title "H2O"

 memory total 24 gb

 geometry units bohr
 symmetry c1
        O  0.00000000  0.00000000  0.00000000
        H  0.00000000  5.16166  0.00000000
        H  1.72558000 -0.64860000  0.00000000
 end

 basis spherical
   * library 6-311++G**
 end

 mcscf
   active  8
   actelec 10
   multiplicity 1
   maxiter 40
   vectors input h2o.mos
   vectors output h2o.mos
 end

 task mcscf

 scf
   vectors input h2o.mos
   vectors output h2o-trash.mos
   noscf
 end

 tce
   2eorb
   2emet 13
   ccsd
   maxiter 300
 end

# set tce:print_integrals T
# set tce:qorb 8
# set tce:qela 5
# set tce:qelb 5

 set tce:qducc T
 set tce:nactv 3
 set tce:nonhf T
 set tce:ducc_model 6

 set tce:printtol 0.02

 task tce
================================================================================

 Output coordinates in a.u. (scale by  1.000000000 to convert to a.u.)

  No.       Tag          Charge          X              Y              Z
 ---- ---------------- ---------- -------------- -------------- --------------
    1 O                    8.0000    -0.17255800    -0.45130600     0.00000000
    2 H                    1.0000    -0.17255800     4.71035400     0.00000000
    3 H                    1.0000     1.55302200    -1.09990600     0.00000000

 Vector    1  Occ=1.999993D+00  E=-2.062306D+01  Symmetry=a

 Vector    2  Occ=1.998913D+00  E=-1.316643D+00  Symmetry=a

 Vector    3  Occ=1.984442D+00  E=-6.804743D-01  Symmetry=a

 Vector    4  Occ=1.974384D+00  E=-5.549803D-01  Symmetry=a

 Vector    5  Occ=1.210241D+00  E=-3.507132D-01  Symmetry=a

 Vector    6  Occ=7.898829D-01  E=-2.255079D-01  Symmetry=a

 Vector    7  Occ=2.672248D-02  E=-2.632645D-02  Symmetry=a

 Vector    8  Occ=1.542272D-02  E=-1.335479D-02  Symmetry=a

 Vector    9  Occ=0.000000D+00  E= 7.082861D-02  Symmetry=a

 Vector   10  Occ=0.000000D+00  E= 9.698588D-02  Symmetry=a

 Vector   11  Occ=0.000000D+00  E= 2.383565D-01  Symmetry=a

 Vector   12  Occ=0.000000D+00  E= 2.751247D-01  Symmetry=a

 Vector   13  Occ=0.000000D+00  E= 3.051186D-01  Symmetry=a

 Vector   14  Occ=0.000000D+00  E= 4.545866D-01  Symmetry=a

 Vector   15  Occ=0.000000D+00  E= 5.585644D-01  Symmetry=a

 Vector   16  Occ=0.000000D+00  E= 5.869024D-01  Symmetry=a

 Vector   17  Occ=0.000000D+00  E= 1.080527D+00  Symmetry=a

 Vector   18  Occ=0.000000D+00  E= 1.245063D+00  Symmetry=a

         Total SCF energy =    -75.696534524158

 Vector    2  Occ=2.000000D+00  E=-1.316643D+00

 Vector    3  Occ=2.000000D+00  E=-6.804743D-01

 Vector    4  Occ=2.000000D+00  E=-5.549803D-01

 Vector    5  Occ=2.000000D+00  E=-3.507132D-01

 Vector    6  Occ=0.000000D+00  E=-2.255079D-01

 Vector    7  Occ=0.000000D+00  E=-2.632645D-02

 Vector    8  Occ=0.000000D+00  E=-1.335479D-02

 Vector    9  Occ=0.000000D+00  E= 7.082861D-02

 Vector   10  Occ=0.000000D+00  E= 9.698588D-02

 Vector   11  Occ=0.000000D+00  E= 2.383565D-01

 Vector   12  Occ=0.000000D+00  E= 2.751247D-01

 Vector   13  Occ=0.000000D+00  E= 3.051186D-01

 Vector   14  Occ=0.000000D+00  E= 4.545866D-01

 Vector   15  Occ=0.000000D+00  E= 5.585644D-01

       Multipole analysis of the density wrt the origin
       ------------------------------------------------

     L   x y z        total         open         nuclear
     -   - - -        -----         ----         -------
     0   0 0 0     -0.000000      0.000000     10.000000

     1   1 0 0      0.651929      0.000000     -0.000000
     1   0 1 0     -0.120285      0.000000     -0.000000
     1   0 0 1     -0.000000      0.000000      0.000000

     2   2 0 0     -4.593323      0.000000      2.679864
     2   1 1 0     -0.657242      0.000000     -1.897976
     2   1 0 1      0.000000      0.000000      0.000000
     2   0 2 0     -3.745546      0.000000     25.026645
     2   0 1 1      0.000000      0.000000      0.000000

 CCSD total energy / hartree       =       -76.092596407718005
 Total times  cpu:       65.9s     wall:       69.1s
