============================== echo of input deck ==============================
 echo
 start H2O
 title "H2O"

 memory total 24 gb

 geometry units bohr
 symmetry c1
        O  0.00000000  0.00000000  0.00000000
        H  0.00000000  5.53035  0.00000000
        H  1.72558000 -0.64860000  0.00000000
 end

 basis spherical
   * library 6-311++G**
 end

 mcscf
   active  8
   actelec 10
   multiplicity 1
   maxiter 40
   vectors input h2o.mos
   vectors output h2o.mos
 end

 task mcscf

 scf
   vectors input h2o.mos
   vectors output h2o-trash.mos
   noscf
 end

 tce
   2eorb
   2emet 13
   ccsd
   maxiter 300
 end

# set tce:print_integrals T
# set tce:qorb 8
# set tce:qela 5
# set tce:qelb 5

 set tce:qducc T
 set tce:nactv 3
 set tce:nonhf T
 set tce:ducc_model 6

 set tce:printtol 0.02

 task tce
================================================================================

 Output coordinates in a.u. (scale by  1.000000000 to convert to a.u.)

  No.       Tag          Charge          X              Y              Z
 ---- ---------------- ---------- -------------- -------------- --------------
    1 O                    8.0000    -0.17255800    -0.48817500     0.00000000
    2 H                    1.0000    -0.17255800     5.04217500     0.00000000
    3 H                    1.0000     1.55302200    -1.13677500     0.00000000

 Vector    1  Occ=1.999993D+00  E=-2.062283D+01  Symmetry=a

 Vector    2  Occ=1.998946D+00  E=-1.316693D+00  Symmetry=a

 Vector    3  Occ=1.984558D+00  E=-6.805061D-01  Symmetry=a

 Vector    4  Occ=1.974422D+00  E=-5.550965D-01  Symmetry=a

 Vector    5  Occ=1.153092D+00  E=-3.420063D-01  Symmetry=a

 Vector    6  Occ=8.469768D-01  E=-2.347890D-01  Symmetry=a

 Vector    7  Occ=2.669051D-02  E=-2.630877D-02  Symmetry=a

 Vector    8  Occ=1.532214D-02  E=-1.330930D-02  Symmetry=a

 Vector    9  Occ=0.000000D+00  E= 7.006535D-02  Symmetry=a

 Vector   10  Occ=0.000000D+00  E= 9.734020D-02  Symmetry=a

 Vector   11  Occ=0.000000D+00  E= 2.388625D-01  Symmetry=a

 Vector   12  Occ=0.000000D+00  E= 2.715693D-01  Symmetry=a

 Vector   13  Occ=0.000000D+00  E= 3.018130D-01  Symmetry=a

 Vector   14  Occ=0.000000D+00  E= 4.537039D-01  Symmetry=a

 Vector   15  Occ=0.000000D+00  E= 5.552703D-01  Symmetry=a

 Vector   16  Occ=0.000000D+00  E= 5.852728D-01  Symmetry=a

 Vector   17  Occ=0.000000D+00  E= 1.080390D+00  Symmetry=a

 Vector   18  Occ=0.000000D+00  E= 1.241720D+00  Symmetry=a

         Total SCF energy =    -75.678542448516

 Vector    2  Occ=2.000000D+00  E=-1.316693D+00

 Vector    3  Occ=2.000000D+00  E=-6.805061D-01

 Vector    4  Occ=2.000000D+00  E=-5.550965D-01

 Vector    5  Occ=2.000000D+00  E=-3.420063D-01

 Vector    6  Occ=0.000000D+00  E=-2.347890D-01

 Vector    7  Occ=0.000000D+00  E=-2.630877D-02

 Vector    8  Occ=0.000000D+00  E=-1.330930D-02

 Vector    9  Occ=0.000000D+00  E= 7.006535D-02

 Vector   10  Occ=0.000000D+00  E= 9.734020D-02

 Vector   11  Occ=0.000000D+00  E= 2.388625D-01

 Vector   12  Occ=0.000000D+00  E= 2.715693D-01

 Vector   13  Occ=0.000000D+00  E= 3.018130D-01

 Vector   14  Occ=0.000000D+00  E= 4.537039D-01

 Vector   15  Occ=0.000000D+00  E= 5.552703D-01

       Multipole analysis of the density wrt the origin
       ------------------------------------------------

     L   x y z        total         open         nuclear
     -   - - -        -----         ----         -------
     0   0 0 0     -0.000000      0.000000     10.000000

     1   1 0 0      0.656159      0.000000     -0.000000
     1   0 1 0     -0.156057      0.000000      0.000000
     1   0 0 1     -0.000000      0.000000      0.000000

     2   2 0 0     -4.577189      0.000000      2.679864
     2   1 1 0     -0.651479      0.000000     -1.961596
     2   1 0 1      0.000000      0.000000      0.000000
     2   0 2 0     -3.885740      0.000000     28.622305
     2   0 1 1      0.000000      0.000000      0.000000

 CCSD total energy / hartree       =       -76.090328881967196
 Total times  cpu:       60.1s     wall:       63.0s
