============================== echo of input deck ==============================
 echo
 start H2
 title "H2"

 memory total 24 gb

 geometry units bohr
 symmetry c1
        H  0.00000000  0.00000000  0.00000000
        H  0.00000000  1.35  0.00000000
 end

 basis
   * library cc-pVQZ
 end

 mcscf
   active  10
   actelec 2
   multiplicity 1
   maxiter 40
   vectors input H2.mos
   vectors output H2.mos
 end

 task mcscf

 scf
   vectors input H2.mos
   vectors output H2-1.35.mos
   noscf
 end

 tce
   2eorb
   2emet 13
   ccsd
   maxiter 300
   lshift 0.8
 end

# set tce:print_integrals T
# set tce:qorb 10
# set tce:qela 1
# set tce:qelb 1

 set tce:qducc T
 set tce:nactv 9
 set tce:nonhf T
 set tce:ducc_model 3

 set tce:printtol 0.02

 task tce
================================================================================

 Output coordinates in a.u. (scale by  1.000000000 to convert to a.u.)

  No.       Tag          Charge          X              Y              Z
 ---- ---------------- ---------- -------------- -------------- --------------
    1 H                    1.0000     0.00000000    -0.67500000     0.00000000
    2 H                    1.0000     0.00000000     0.67500000     0.00000000

 Vector    1  Occ=1.965372D+00  E=-6.284397D-01  Symmetry=a

 Vector    2  Occ=1.886933D-02  E=-1.332779D-02  Symmetry=a

 Vector    3  Occ=6.378419D-03  E=-5.497003D-03  Symmetry=a

 Vector    4  Occ=4.317703D-03  E=-3.895663D-03  Symmetry=a

 Vector    5  Occ=4.317703D-03  E=-3.895663D-03  Symmetry=a

 Vector    6  Occ=1.922647D-04  E=-3.086564D-04  Symmetry=a

 Vector    7  Occ=1.834378D-04  E=-3.031316D-04  Symmetry=a

 Vector    8  Occ=1.425652D-04  E=-2.324072D-04  Symmetry=a

 Vector    9  Occ=1.425652D-04  E=-2.324072D-04  Symmetry=a

 Vector   10  Occ=8.404510D-05  E=-1.710666D-04  Symmetry=a

 Vector   11  Occ=0.000000D+00  E= 3.713268D-01  Symmetry=a

 Vector   12  Occ=0.000000D+00  E= 8.373382D-01  Symmetry=a

 Vector   13  Occ=0.000000D+00  E= 1.076745D+00  Symmetry=a

 Vector   14  Occ=0.000000D+00  E= 1.244508D+00  Symmetry=a

 Vector   15  Occ=0.000000D+00  E= 1.244508D+00  Symmetry=a

 Vector   16  Occ=0.000000D+00  E= 1.285014D+00  Symmetry=a

 Vector   17  Occ=0.000000D+00  E= 1.285014D+00  Symmetry=a

 Vector   18  Occ=0.000000D+00  E= 1.525808D+00  Symmetry=a

 Vector   19  Occ=0.000000D+00  E= 1.947508D+00  Symmetry=a

 Vector   20  Occ=0.000000D+00  E= 1.947508D+00  Symmetry=a

         Total SCF energy =     -1.133107483486

 Vector    1  Occ=2.000000D+00  E=-6.284397D-01

 Vector    2  Occ=0.000000D+00  E=-1.332779D-02

 Vector    3  Occ=0.000000D+00  E=-5.497003D-03

 Vector    4  Occ=0.000000D+00  E=-3.895663D-03

 Vector    5  Occ=0.000000D+00  E=-3.895663D-03

 Vector    6  Occ=0.000000D+00  E=-3.086564D-04

 Vector    7  Occ=0.000000D+00  E=-3.031316D-04

 Vector    8  Occ=0.000000D+00  E=-2.324072D-04

 Vector    9  Occ=0.000000D+00  E=-2.324072D-04

 Vector   10  Occ=0.000000D+00  E=-1.710666D-04

 Vector   11  Occ=0.000000D+00  E= 3.713268D-01

 Vector   12  Occ=0.000000D+00  E= 8.373382D-01

       Multipole analysis of the density wrt the origin
       ------------------------------------------------

     L   x y z        total         open         nuclear
     -   - - -        -----         ----         -------
     0   0 0 0     -0.000000      0.000000      2.000000

     1   1 0 0      0.000000      0.000000      0.000000
     1   0 1 0     -0.000000      0.000000      0.000000
     1   0 0 1     -0.000000      0.000000      0.000000

     2   2 0 0     -1.494617      0.000000      0.000000
     2   1 1 0      0.000000      0.000000      0.000000
     2   1 0 1     -0.000000      0.000000      0.000000
     2   0 2 0     -1.062418      0.000000      0.911250
     2   0 1 1     -0.000000      0.000000      0.000000

 CCSD total energy / hartree       =        -1.173311414184906
 Total times  cpu:       40.0s     wall:       44.0s
