============================== echo of input deck ==============================
 echo
 start H2
 title "H2"

 memory total 24 gb

 geometry units bohr
 symmetry c1
        H  0.00000000  0.00000000  0.00000000
        H  0.00000000  1.40  0.00000000
 end

 basis
   * library cc-pVQZ
 end

 mcscf
   active  10
   actelec 2
   multiplicity 1
   maxiter 40
   vectors input H2.mos
   vectors output H2.mos
 end

 task mcscf

 scf
   vectors input H2.mos
   vectors output H2-1.40.mos
   noscf
 end

 tce
   2eorb
   2emet 13
   ccsd
   maxiter 300
   lshift 0.8
 end

# set tce:print_integrals T
# set tce:qorb 10
# set tce:qela 1
# set tce:qelb 1

 set tce:qducc T
 set tce:nactv 9
 set tce:nonhf T
 set tce:ducc_model 3

 set tce:printtol 0.02

 task tce
================================================================================

 Output coordinates in a.u. (scale by  1.000000000 to convert to a.u.)

  No.       Tag          Charge          X              Y              Z
 ---- ---------------- ---------- -------------- -------------- --------------
    1 H                    1.0000     0.00000000    -0.70000000     0.00000000
    2 H                    1.0000     0.00000000     0.70000000     0.00000000

 Vector    1  Occ=1.963755D+00  E=-6.199594D-01  Symmetry=a

 Vector    2  Occ=2.048339D-02  E=-1.403201D-02  Symmetry=a

 Vector    3  Occ=6.306474D-03  E=-5.348956D-03  Symmetry=a

 Vector    4  Occ=4.346622D-03  E=-3.842311D-03  Symmetry=a

 Vector    5  Occ=4.346622D-03  E=-3.842311D-03  Symmetry=a

 Vector    6  Occ=2.002599D-04  E=-3.068394D-04  Symmetry=a

 Vector    7  Occ=1.871674D-04  E=-3.009717D-04  Symmetry=a

 Vector    8  Occ=1.459138D-04  E=-2.277697D-04  Symmetry=a

 Vector    9  Occ=1.459138D-04  E=-2.277697D-04  Symmetry=a

 Vector   10  Occ=8.301086D-05  E=-1.650203D-04  Symmetry=a

 Vector   11  Occ=0.000000D+00  E= 3.719735D-01  Symmetry=a

 Vector   12  Occ=0.000000D+00  E= 9.040600D-01  Symmetry=a

 Vector   13  Occ=0.000000D+00  E= 1.079525D+00  Symmetry=a

 Vector   14  Occ=0.000000D+00  E= 1.191511D+00  Symmetry=a

 Vector   15  Occ=0.000000D+00  E= 1.191511D+00  Symmetry=a

 Vector   16  Occ=0.000000D+00  E= 1.293550D+00  Symmetry=a

 Vector   17  Occ=0.000000D+00  E= 1.293550D+00  Symmetry=a

 Vector   18  Occ=0.000000D+00  E= 1.463887D+00  Symmetry=a

 Vector   19  Occ=0.000000D+00  E= 1.942897D+00  Symmetry=a

 Vector   20  Occ=0.000000D+00  E= 1.942897D+00  Symmetry=a

         Total SCF energy =     -1.133333528973

 Vector    1  Occ=2.000000D+00  E=-6.199594D-01

 Vector    2  Occ=0.000000D+00  E=-1.403201D-02

 Vector    3  Occ=0.000000D+00  E=-5.348956D-03

 Vector    4  Occ=0.000000D+00  E=-3.842311D-03

 Vector    5  Occ=0.000000D+00  E=-3.842311D-03

 Vector    6  Occ=0.000000D+00  E=-3.068394D-04

 Vector    7  Occ=0.000000D+00  E=-3.009717D-04

 Vector    8  Occ=0.000000D+00  E=-2.277697D-04

 Vector    9  Occ=0.000000D+00  E=-2.277697D-04

 Vector   10  Occ=0.000000D+00  E=-1.650203D-04

 Vector   11  Occ=0.000000D+00  E= 3.719735D-01

 Vector   12  Occ=0.000000D+00  E= 9.040600D-01

       Multipole analysis of the density wrt the origin
       ------------------------------------------------

     L   x y z        total         open         nuclear
     -   - - -        -----         ----         -------
     0   0 0 0     -0.000000      0.000000      2.000000

     1   1 0 0      0.000000      0.000000      0.000000
     1   0 1 0     -0.000000      0.000000      0.000000
     1   0 0 1     -0.000000      0.000000      0.000000

     2   2 0 0     -1.523350      0.000000      0.000000
     2   1 1 0      0.000000      0.000000      0.000000
     2   1 0 1     -0.000000      0.000000      0.000000
     2   0 2 0     -1.064185      0.000000      0.980000
     2   0 1 1     -0.000000      0.000000      0.000000

 CCSD total energy / hartree       =        -1.173839358530617
 Total times  cpu:       53.2s     wall:       62.0s
