============================== echo of input deck ==============================
 echo
 start H2
 title "H2"

 memory total 24 gb

 geometry units bohr
 symmetry c1
        H  0.00000000  0.00000000  0.00000000
        H  0.00000000  3.10  0.00000000
 end

 basis
   * library cc-pVQZ
 end

 mcscf
   active  10
   actelec 2
   multiplicity 1
   maxiter 40
   vectors input H2.mos
   vectors output H2.mos
 end

 task mcscf

 scf
   vectors input H2.mos
   vectors output H2-3.10.mos
   noscf
 end

 tce
   2eorb
   2emet 13
   ccsd
   maxiter 300
   lshift 0.8
 end

# set tce:print_integrals T
# set tce:qorb 10
# set tce:qela 1
# set tce:qelb 1

 set tce:qducc T
 set tce:nactv 9
 set tce:nonhf T
 set tce:ducc_model 3

 set tce:printtol 0.02

 task tce
================================================================================

 Output coordinates in a.u. (scale by  1.000000000 to convert to a.u.)

  No.       Tag          Charge          X              Y              Z
 ---- ---------------- ---------- -------------- -------------- --------------
    1 H                    1.0000     0.00000000    -1.55000000     0.00000000
    2 H                    1.0000     0.00000000     1.55000000     0.00000000

 Vector    1  Occ=1.768097D+00  E=-4.320317D-01  Symmetry=a

 Vector    2  Occ=2.231707D-01  E=-7.496986D-02  Symmetry=a

 Vector    3  Occ=3.095269D-03  E=-1.856125D-03  Symmetry=a

 Vector    4  Occ=2.485438D-03  E=-1.478803D-03  Symmetry=a

 Vector    5  Occ=2.485438D-03  E=-1.478803D-03  Symmetry=a

 Vector    6  Occ=2.671404D-04  E=-2.003883D-04  Symmetry=a

 Vector    7  Occ=1.230217D-04  E=-1.129429D-04  Symmetry=a

 Vector    8  Occ=1.166369D-04  E=-1.041621D-04  Symmetry=a

 Vector    9  Occ=1.166369D-04  E=-1.041621D-04  Symmetry=a

 Vector   10  Occ=4.236589D-05  E=-4.710486D-05  Symmetry=a

 Vector   11  Occ=0.000000D+00  E= 4.788054D-01  Symmetry=a

 Vector   12  Occ=0.000000D+00  E= 8.280941D-01  Symmetry=a

 Vector   13  Occ=0.000000D+00  E= 1.052230D+00  Symmetry=a

 Vector   14  Occ=0.000000D+00  E= 1.401609D+00  Symmetry=a

 Vector   15  Occ=0.000000D+00  E= 1.401609D+00  Symmetry=a

 Vector   16  Occ=0.000000D+00  E= 1.617721D+00  Symmetry=a

 Vector   17  Occ=0.000000D+00  E= 1.617721D+00  Symmetry=a

 Vector   18  Occ=0.000000D+00  E= 1.920940D+00  Symmetry=a

 Vector   19  Occ=0.000000D+00  E= 1.920940D+00  Symmetry=a

 Vector   20  Occ=0.000000D+00  E= 1.931835D+00  Symmetry=a

         Total SCF energy =     -0.975970706526

 Vector    1  Occ=2.000000D+00  E=-4.320317D-01

 Vector    2  Occ=0.000000D+00  E=-7.496986D-02

 Vector    3  Occ=0.000000D+00  E=-1.856125D-03

 Vector    4  Occ=0.000000D+00  E=-1.478803D-03

 Vector    5  Occ=0.000000D+00  E=-1.478803D-03

 Vector    6  Occ=0.000000D+00  E=-2.003883D-04

 Vector    7  Occ=0.000000D+00  E=-1.129429D-04

 Vector    8  Occ=0.000000D+00  E=-1.041621D-04

 Vector    9  Occ=0.000000D+00  E=-1.041621D-04

 Vector   10  Occ=0.000000D+00  E=-4.710486D-05

 Vector   11  Occ=0.000000D+00  E= 4.788054D-01

 Vector   12  Occ=0.000000D+00  E= 8.280941D-01

       Multipole analysis of the density wrt the origin
       ------------------------------------------------

     L   x y z        total         open         nuclear
     -   - - -        -----         ----         -------
     0   0 0 0     -0.000000      0.000000      2.000000

     1   1 0 0     -0.000000      0.000000      0.000000
     1   0 1 0     -0.000000      0.000000      0.000000
     1   0 0 1      0.000000      0.000000      0.000000

     2   2 0 0     -2.176497      0.000000      0.000000
     2   1 1 0     -0.000000      0.000000      0.000000
     2   1 0 1     -0.000000      0.000000      0.000000
     2   0 2 0     -0.933337      0.000000      4.805000
     2   0 1 1      0.000000      0.000000      0.000000

 CCSD total energy / hartree       =        -1.050643800248150
 Total times  cpu:       38.0s     wall:       40.9s
