============================== echo of input deck ==============================
 echo
 start H2
 title "H2"

 memory total 24 gb

 geometry units bohr
 symmetry c1
        H  0.00000000  0.00000000  0.00000000
        H  0.00000000  3.95  0.00000000
 end

 basis
   * library cc-pVQZ
 end

 mcscf
   active  10
   actelec 2
   multiplicity 1
   maxiter 40
   vectors input H2.mos
   vectors output H2.mos
 end

 task mcscf

 scf
   vectors input H2.mos
   vectors output H2-3.95.mos
   noscf
 end

 tce
   2eorb
   2emet 13
   ccsd
   maxiter 300
   lshift 0.8
 end

# set tce:print_integrals T
# set tce:qorb 10
# set tce:qela 1
# set tce:qelb 1

 set tce:qducc T
 set tce:nactv 9
 set tce:nonhf T
 set tce:ducc_model 3

 set tce:printtol 0.02

 task tce
================================================================================

 Output coordinates in a.u. (scale by  1.000000000 to convert to a.u.)

  No.       Tag          Charge          X              Y              Z
 ---- ---------------- ---------- -------------- -------------- --------------
    1 H                    1.0000     0.00000000    -1.97500000     0.00000000
    2 H                    1.0000     0.00000000     1.97500000     0.00000000

 Vector    1  Occ=1.527652D+00  E=-3.647974D-01  Symmetry=a

 Vector    2  Occ=4.685948D-01  E=-1.344757D-01  Symmetry=a

 Vector    3  Occ=1.602972D-03  E=-8.801587D-04  Symmetry=a

 Vector    4  Occ=9.660530D-04  E=-5.461383D-04  Symmetry=a

 Vector    5  Occ=9.660530D-04  E=-5.461383D-04  Symmetry=a

 Vector    6  Occ=9.573167D-05  E=-6.237410D-05  Symmetry=a

 Vector    7  Occ=3.818118D-05  E=-3.112264D-05  Symmetry=a

 Vector    8  Occ=3.818118D-05  E=-3.112264D-05  Symmetry=a

 Vector    9  Occ=3.335820D-05  E=-2.896206D-05  Symmetry=a

 Vector   10  Occ=1.300678D-05  E=-1.468797D-05  Symmetry=a

 Vector   11  Occ=0.000000D+00  E= 4.735128D-01  Symmetry=a

 Vector   12  Occ=0.000000D+00  E= 8.064210D-01  Symmetry=a

 Vector   13  Occ=0.000000D+00  E= 9.797556D-01  Symmetry=a

 Vector   14  Occ=0.000000D+00  E= 1.384515D+00  Symmetry=a

 Vector   15  Occ=0.000000D+00  E= 1.384515D+00  Symmetry=a

 Vector   16  Occ=0.000000D+00  E= 1.749515D+00  Symmetry=a

 Vector   17  Occ=0.000000D+00  E= 1.791028D+00  Symmetry=a

 Vector   18  Occ=0.000000D+00  E= 1.791028D+00  Symmetry=a

 Vector   19  Occ=0.000000D+00  E= 1.896197D+00  Symmetry=a

 Vector   20  Occ=0.000000D+00  E= 1.896197D+00  Symmetry=a

         Total SCF energy =     -0.903338560055

 Vector    1  Occ=2.000000D+00  E=-3.647974D-01

 Vector    2  Occ=0.000000D+00  E=-1.344757D-01

 Vector    3  Occ=0.000000D+00  E=-8.801587D-04

 Vector    4  Occ=0.000000D+00  E=-5.461383D-04

 Vector    5  Occ=0.000000D+00  E=-5.461383D-04

 Vector    6  Occ=0.000000D+00  E=-6.237410D-05

 Vector    7  Occ=0.000000D+00  E=-3.112264D-05

 Vector    8  Occ=0.000000D+00  E=-3.112264D-05

 Vector    9  Occ=0.000000D+00  E=-2.896206D-05

 Vector   10  Occ=0.000000D+00  E=-1.468797D-05

 Vector   11  Occ=0.000000D+00  E= 4.735128D-01

 Vector   12  Occ=0.000000D+00  E= 8.064210D-01

       Multipole analysis of the density wrt the origin
       ------------------------------------------------

     L   x y z        total         open         nuclear
     -   - - -        -----         ----         -------
     0   0 0 0     -0.000000      0.000000      2.000000

     1   1 0 0     -0.000000      0.000000      0.000000
     1   0 1 0     -0.000000      0.000000      0.000000
     1   0 0 1      0.000000      0.000000      0.000000

     2   2 0 0     -2.223688      0.000000      0.000000
     2   1 1 0     -0.000000      0.000000      0.000000
     2   1 0 1     -0.000000      0.000000      0.000000
     2   0 2 0     -0.968006      0.000000      7.801250
     2   0 1 1      0.000000      0.000000      0.000000

 CCSD total energy / hartree       =        -1.016942070449387
 Total times  cpu:       39.2s     wall:       42.3s
