============================== echo of input deck ==============================
 echo
 start H2
 title "H2"

 memory total 24 gb

 geometry units bohr
 symmetry c1
        H  0.00000000  0.00000000  0.00000000
        H  0.00000000  4.05  0.00000000
 end

 basis
   * library cc-pVQZ
 end

 mcscf
   active  10
   actelec 2
   multiplicity 1
   maxiter 40
   vectors input H2.mos
   vectors output H2.mos
 end

 task mcscf

 scf
   vectors input H2.mos
   vectors output H2-4.05.mos
   noscf
 end

 tce
   2eorb
   2emet 13
   ccsd
   maxiter 300
   lshift 0.8
 end

# set tce:print_integrals T
# set tce:qorb 10
# set tce:qela 1
# set tce:qelb 1

 set tce:qducc T
 set tce:nactv 9
 set tce:nonhf T
 set tce:ducc_model 3

 set tce:printtol 0.02

 task tce
================================================================================

 Output coordinates in a.u. (scale by  1.000000000 to convert to a.u.)

  No.       Tag          Charge          X              Y              Z
 ---- ---------------- ---------- -------------- -------------- --------------
    1 H                    1.0000     0.00000000    -2.02500000     0.00000000
    2 H                    1.0000     0.00000000     2.02500000     0.00000000

 Vector    1  Occ=1.497827D+00  E=-3.577242D-01  Symmetry=a

 Vector    2  Occ=4.988436D-01  E=-1.414184D-01  Symmetry=a

 Vector    3  Occ=1.464648D-03  E=-7.974367D-04  Symmetry=a

 Vector    4  Occ=8.419167D-04  E=-4.750086D-04  Symmetry=a

 Vector    5  Occ=8.419167D-04  E=-4.750086D-04  Symmetry=a

 Vector    6  Occ=8.045003D-05  E=-5.203508D-05  Symmetry=a

 Vector    7  Occ=3.154517D-05  E=-2.575572D-05  Symmetry=a

 Vector    8  Occ=3.154517D-05  E=-2.575572D-05  Symmetry=a

 Vector    9  Occ=2.671642D-05  E=-2.346355D-05  Symmetry=a

 Vector   10  Occ=1.049196D-05  E=-1.212318D-05  Symmetry=a

 Vector   11  Occ=0.000000D+00  E= 4.683236D-01  Symmetry=a

 Vector   12  Occ=0.000000D+00  E= 8.068152D-01  Symmetry=a

 Vector   13  Occ=0.000000D+00  E= 9.553228D-01  Symmetry=a

 Vector   14  Occ=0.000000D+00  E= 1.369252D+00  Symmetry=a

 Vector   15  Occ=0.000000D+00  E= 1.369252D+00  Symmetry=a

 Vector   16  Occ=0.000000D+00  E= 1.729167D+00  Symmetry=a

 Vector   17  Occ=0.000000D+00  E= 1.795323D+00  Symmetry=a

 Vector   18  Occ=0.000000D+00  E= 1.795323D+00  Symmetry=a

 Vector   19  Occ=0.000000D+00  E= 1.911319D+00  Symmetry=a

 Vector   20  Occ=0.000000D+00  E= 1.911319D+00  Symmetry=a

         Total SCF energy =     -0.895903695685

 Vector    1  Occ=2.000000D+00  E=-3.577242D-01

 Vector    2  Occ=0.000000D+00  E=-1.414184D-01

 Vector    3  Occ=0.000000D+00  E=-7.974367D-04

 Vector    4  Occ=0.000000D+00  E=-4.750086D-04

 Vector    5  Occ=0.000000D+00  E=-4.750086D-04

 Vector    6  Occ=0.000000D+00  E=-5.203508D-05

 Vector    7  Occ=0.000000D+00  E=-2.575572D-05

 Vector    8  Occ=0.000000D+00  E=-2.575572D-05

 Vector    9  Occ=0.000000D+00  E=-2.346355D-05

 Vector   10  Occ=0.000000D+00  E=-1.212318D-05

 Vector   11  Occ=0.000000D+00  E= 4.683236D-01

 Vector   12  Occ=0.000000D+00  E= 8.068152D-01

       Multipole analysis of the density wrt the origin
       ------------------------------------------------

     L   x y z        total         open         nuclear
     -   - - -        -----         ----         -------
     0   0 0 0     -0.000000      0.000000      2.000000

     1   1 0 0     -0.000000      0.000000      0.000000
     1   0 1 0     -0.000000      0.000000      0.000000
     1   0 0 1      0.000000      0.000000      0.000000

     2   2 0 0     -2.220852      0.000000      0.000000
     2   1 1 0     -0.000000      0.000000      0.000000
     2   1 0 1     -0.000000      0.000000      0.000000
     2   0 2 0     -0.981908      0.000000      8.201250
     2   0 1 1      0.000000      0.000000      0.000000

 CCSD total energy / hartree       =        -1.014682220842914
 Total times  cpu:       37.6s     wall:       40.8s
