============================== echo of input deck ==============================
 echo
 start H2
 title "H2"

 memory total 24 gb

 geometry units bohr
 symmetry c1
        H  0.00000000  0.00000000  0.00000000
        H  0.00000000  4.35  0.00000000
 end

 basis
   * library cc-pVQZ
 end

 mcscf
   active  10
   actelec 2
   multiplicity 1
   maxiter 40
   vectors input H2.mos
   vectors output H2.mos
 end

 task mcscf

 scf
   vectors input H2.mos
   vectors output H2-4.35.mos
   noscf
 end

 tce
   2eorb
   2emet 13
   ccsd
   maxiter 300
   lshift 0.8
 end

# set tce:print_integrals T
# set tce:qorb 10
# set tce:qela 1
# set tce:qelb 1

 set tce:qducc T
 set tce:nactv 9
 set tce:nonhf T
 set tce:ducc_model 3

 set tce:printtol 0.02

 task tce
================================================================================

 Output coordinates in a.u. (scale by  1.000000000 to convert to a.u.)

  No.       Tag          Charge          X              Y              Z
 ---- ---------------- ---------- -------------- -------------- --------------
    1 H                    1.0000     0.00000000    -2.17500000     0.00000000
    2 H                    1.0000     0.00000000     2.17500000     0.00000000

 Vector    1  Occ=1.412310D+00  E=-3.381365D-01  Symmetry=a

 Vector    2  Occ=5.854045D-01  E=-1.609435D-01  Symmetry=a

 Vector    3  Occ=1.099432D-03  E=-5.856092D-04  Symmetry=a

 Vector    4  Occ=5.444744D-04  E=-3.064466D-04  Symmetry=a

 Vector    5  Occ=5.444744D-04  E=-3.064466D-04  Symmetry=a

 Vector    6  Occ=4.533140D-05  E=-2.890673D-05  Symmetry=a

 Vector    7  Occ=1.680572D-05  E=-1.387987D-05  Symmetry=a

 Vector    8  Occ=1.680572D-05  E=-1.387987D-05  Symmetry=a

 Vector    9  Occ=1.331812D-05  E=-1.206522D-05  Symmetry=a

 Vector   10  Occ=5.227267D-06  E=-6.502922D-06  Symmetry=a

 Vector   11  Occ=0.000000D+00  E= 4.611518D-01  Symmetry=a

 Vector   12  Occ=0.000000D+00  E= 8.067068D-01  Symmetry=a

 Vector   13  Occ=0.000000D+00  E= 8.776128D-01  Symmetry=a

 Vector   14  Occ=0.000000D+00  E= 1.328233D+00  Symmetry=a

 Vector   15  Occ=0.000000D+00  E= 1.328233D+00  Symmetry=a

 Vector   16  Occ=0.000000D+00  E= 1.693399D+00  Symmetry=a

 Vector   17  Occ=0.000000D+00  E= 1.798824D+00  Symmetry=a

 Vector   18  Occ=0.000000D+00  E= 1.798824D+00  Symmetry=a

 Vector   19  Occ=0.000000D+00  E= 1.956604D+00  Symmetry=a

 Vector   20  Occ=0.000000D+00  E= 1.956604D+00  Symmetry=a

         Total SCF energy =     -0.875013406178

 Vector    1  Occ=2.000000D+00  E=-3.381365D-01

 Vector    2  Occ=0.000000D+00  E=-1.609435D-01

 Vector    3  Occ=0.000000D+00  E=-5.856092D-04

 Vector    4  Occ=0.000000D+00  E=-3.064466D-04

 Vector    5  Occ=0.000000D+00  E=-3.064466D-04

 Vector    6  Occ=0.000000D+00  E=-2.890673D-05

 Vector    7  Occ=0.000000D+00  E=-1.387987D-05

 Vector    8  Occ=0.000000D+00  E=-1.387987D-05

 Vector    9  Occ=0.000000D+00  E=-1.206522D-05

 Vector   10  Occ=0.000000D+00  E=-6.502922D-06

 Vector   11  Occ=0.000000D+00  E= 4.611518D-01

 Vector   12  Occ=0.000000D+00  E= 8.067068D-01

       Multipole analysis of the density wrt the origin
       ------------------------------------------------

     L   x y z        total         open         nuclear
     -   - - -        -----         ----         -------
     0   0 0 0     -0.000000      0.000000      2.000000

     1   1 0 0     -0.000000      0.000000      0.000000
     1   0 1 0     -0.000000      0.000000      0.000000
     1   0 0 1      0.000000      0.000000      0.000000

     2   2 0 0     -2.206368      0.000000      0.000000
     2   1 1 0     -0.000000      0.000000      0.000000
     2   1 0 1      0.000000      0.000000      0.000000
     2   0 2 0     -1.033949      0.000000      9.461250
     2   0 1 1      0.000000      0.000000      0.000000

 CCSD total energy / hartree       =        -1.009426300223755
 Total times  cpu:       37.2s     wall:       40.0s
