============================== echo of input deck ==============================
 echo
 start H2
 title "H2"

 memory total 24 gb

 geometry units bohr
 symmetry c1
        H  0.00000000  0.00000000  0.00000000
        H  0.00000000  4.70  0.00000000
 end

 basis
   * library cc-pVQZ
 end

 mcscf
   active  10
   actelec 2
   multiplicity 1
   maxiter 40
   vectors input H2.mos
   vectors output H2.mos
 end

 task mcscf

 scf
   vectors input H2.mos
   vectors output H2-4.70.mos
   noscf
 end

 tce
   2eorb
   2emet 13
   ccsd
   maxiter 300
   lshift 0.8
 end

# set tce:print_integrals T
# set tce:qorb 10
# set tce:qela 1
# set tce:qelb 1

 set tce:qducc T
 set tce:nactv 9
 set tce:nonhf T
 set tce:ducc_model 3

 set tce:printtol 0.02

 task tce
================================================================================

 Output coordinates in a.u. (scale by  1.000000000 to convert to a.u.)

  No.       Tag          Charge          X              Y              Z
 ---- ---------------- ---------- -------------- -------------- --------------
    1 H                    1.0000     0.00000000    -2.35000000     0.00000000
    2 H                    1.0000     0.00000000     2.35000000     0.00000000

 Vector    1  Occ=1.324023D+00  E=-3.186923D-01  Symmetry=a

 Vector    2  Occ=6.745364D-01  E=-1.805836D-01  Symmetry=a

 Vector    3  Occ=7.617237D-04  E=-3.982495D-04  Symmetry=a

 Vector    4  Occ=3.179634D-04  E=-1.787666D-04  Symmetry=a

 Vector    5  Occ=3.179634D-04  E=-1.787666D-04  Symmetry=a

 Vector    6  Occ=2.131498D-05  E=-1.371972D-05  Symmetry=a

 Vector    7  Occ=6.700329D-06  E=-6.114142D-06  Symmetry=a

 Vector    8  Occ=6.700329D-06  E=-6.114142D-06  Symmetry=a

 Vector    9  Occ=5.792182D-06  E=-5.411402D-06  Symmetry=a

 Vector   10  Occ=2.427566D-06  E=-3.136471D-06  Symmetry=a

 Vector   11  Occ=0.000000D+00  E= 4.596662D-01  Symmetry=a

 Vector   12  Occ=0.000000D+00  E= 7.942469D-01  Symmetry=a

 Vector   13  Occ=0.000000D+00  E= 8.029006D-01  Symmetry=a

 Vector   14  Occ=0.000000D+00  E= 1.284073D+00  Symmetry=a

 Vector   15  Occ=0.000000D+00  E= 1.284073D+00  Symmetry=a

 Vector   16  Occ=0.000000D+00  E= 1.675244D+00  Symmetry=a

 Vector   17  Occ=0.000000D+00  E= 1.798601D+00  Symmetry=a

 Vector   18  Occ=0.000000D+00  E= 1.798601D+00  Symmetry=a

 Vector   19  Occ=0.000000D+00  E= 1.934046D+00  Symmetry=a

 Vector   20  Occ=0.000000D+00  E= 1.993560D+00  Symmetry=a

         Total SCF energy =     -0.853331298425

 Vector    1  Occ=2.000000D+00  E=-3.186923D-01

 Vector    2  Occ=0.000000D+00  E=-1.805836D-01

 Vector    3  Occ=0.000000D+00  E=-3.982495D-04

 Vector    4  Occ=0.000000D+00  E=-1.787666D-04

 Vector    5  Occ=0.000000D+00  E=-1.787666D-04

 Vector    6  Occ=0.000000D+00  E=-1.371972D-05

 Vector    7  Occ=0.000000D+00  E=-6.114142D-06

 Vector    8  Occ=0.000000D+00  E=-6.114142D-06

 Vector    9  Occ=0.000000D+00  E=-5.411402D-06

 Vector   10  Occ=0.000000D+00  E=-3.136471D-06

 Vector   11  Occ=0.000000D+00  E= 4.596662D-01

 Vector   12  Occ=0.000000D+00  E= 7.942469D-01

       Multipole analysis of the density wrt the origin
       ------------------------------------------------

     L   x y z        total         open         nuclear
     -   - - -        -----         ----         -------
     0   0 0 0     -0.000000      0.000000      2.000000

     1   1 0 0     -0.000000      0.000000      0.000000
     1   0 1 0     -0.000000      0.000000      0.000000
     1   0 0 1      0.000000      0.000000      0.000000

     2   2 0 0     -2.182652      0.000000      0.000000
     2   1 1 0     -0.000000      0.000000      0.000000
     2   1 0 1      0.000000      0.000000      0.000000
     2   0 2 0     -1.109112      0.000000     11.045000
     2   0 1 1      0.000000      0.000000      0.000000

 CCSD total energy / hartree       =        -1.005500714358182
 Total times  cpu:       39.7s     wall:       43.9s
