============================== echo of input deck ==============================
 echo
 start H2
 title "H2"

 memory total 24 gb

 geometry units bohr
 symmetry c1
        H  0.00000000  0.00000000  0.00000000
        H  0.00000000  6.55  0.00000000
 end

 basis
   * library cc-pVQZ
 end

 mcscf
   active  10
   actelec 2
   multiplicity 1
   maxiter 40
   vectors input H2.mos
   vectors output H2.mos
 end

 task mcscf

 scf
   vectors input H2.mos
   vectors output H2-6.55.mos
   noscf
 end

 tce
   2eorb
   2emet 13
   ccsd
   maxiter 300
   lshift 0.8
 end

# set tce:print_integrals T
# set tce:qorb 10
# set tce:qela 1
# set tce:qelb 1

 set tce:qducc T
 set tce:nactv 9
 set tce:nonhf T
 set tce:ducc_model 3

 set tce:printtol 0.02

 task tce
================================================================================

 Output coordinates in a.u. (scale by  1.000000000 to convert to a.u.)

  No.       Tag          Charge          X              Y              Z
 ---- ---------------- ---------- -------------- -------------- --------------
    1 H                    1.0000     0.00000000    -3.27500000     0.00000000
    2 H                    1.0000     0.00000000     3.27500000     0.00000000

 Vector    1  Occ=1.077750D+00  E=-2.664041D-01  Symmetry=a

 Vector    2  Occ=9.221413D-01  E=-2.334988D-01  Symmetry=a

 Vector    3  Occ=7.158231D-05  E=-3.850602D-05  Symmetry=a

 Vector    4  Occ=1.851318D-05  E=-1.060458D-05  Symmetry=a

 Vector    5  Occ=1.851318D-05  E=-1.060458D-05  Symmetry=a

 Vector    6  Occ=2.774729D-07  E=-1.896585D-07  Symmetry=a

 Vector    7  Occ=1.248996D-07  E=-1.165184D-07  Symmetry=a

 Vector    8  Occ=5.515606D-08  E=-6.603301D-08  Symmetry=a

 Vector    9  Occ=1.903018D-09  E=-1.741696D-09  Symmetry=a

 Vector   10  Occ=1.903018D-09  E=-1.741696D-09  Symmetry=a

 Vector   11  Occ=0.000000D+00  E= 4.217092D-01  Symmetry=a

 Vector   12  Occ=0.000000D+00  E= 6.278857D-01  Symmetry=a

 Vector   13  Occ=0.000000D+00  E= 8.320838D-01  Symmetry=a

 Vector   14  Occ=0.000000D+00  E= 1.136833D+00  Symmetry=a

 Vector   15  Occ=0.000000D+00  E= 1.136833D+00  Symmetry=a

 Vector   16  Occ=0.000000D+00  E= 1.763394D+00  Symmetry=a

 Vector   17  Occ=0.000000D+00  E= 1.828124D+00  Symmetry=a

 Vector   18  Occ=0.000000D+00  E= 1.828124D+00  Symmetry=a

 Vector   19  Occ=0.000000D+00  E= 1.887097D+00  Symmetry=a

 Vector   20  Occ=0.000000D+00  E= 2.045462D+00  Symmetry=a

         Total SCF energy =     -0.780924053225

 Vector    1  Occ=2.000000D+00  E=-2.664041D-01

 Vector    2  Occ=0.000000D+00  E=-2.334988D-01

 Vector    3  Occ=0.000000D+00  E=-3.850602D-05

 Vector    4  Occ=0.000000D+00  E=-1.060458D-05

 Vector    5  Occ=0.000000D+00  E=-1.060458D-05

 Vector    6  Occ=0.000000D+00  E=-1.896585D-07

 Vector    7  Occ=0.000000D+00  E=-1.165184D-07

 Vector    8  Occ=0.000000D+00  E=-6.603301D-08

 Vector    9  Occ=0.000000D+00  E=-1.741696D-09

 Vector   10  Occ=0.000000D+00  E=-1.741696D-09

 Vector   11  Occ=0.000000D+00  E= 4.217092D-01

 Vector   12  Occ=0.000000D+00  E= 6.278857D-01

       Multipole analysis of the density wrt the origin
       ------------------------------------------------

     L   x y z        total         open         nuclear
     -   - - -        -----         ----         -------
     0   0 0 0     -0.000000      0.000000      2.000000

     1   1 0 0     -0.000000      0.000000      0.000000
     1   0 1 0     -0.000000      0.000000      0.000000
     1   0 0 1      0.000000      0.000000      0.000000

     2   2 0 0     -2.065415      0.000000      0.000000
     2   1 1 0     -0.000000      0.000000      0.000000
     2   1 0 1      0.000000      0.000000      0.000000
     2   0 2 0     -1.542716      0.000000     21.451250
     2   0 1 1      0.000000      0.000000      0.000000

 CCSD total energy / hartree       =        -1.000194800628480
 Total times  cpu:       39.1s     wall:       42.2s
