============================== echo of input deck ==============================
 echo
 start H2
 title "H2"

 memory total 24 gb

 geometry units bohr
 symmetry c1
        H  0.00000000  0.00000000  0.00000000
        H  0.00000000  7.35  0.00000000
 end

 basis
   * library cc-pVQZ
 end

 mcscf
   active  10
   actelec 2
   multiplicity 1
   maxiter 40
   vectors input H2.mos
   vectors output H2.mos
 end

 task mcscf

 scf
   vectors input H2.mos
   vectors output H2-7.35.mos
   noscf
 end

 tce
   2eorb
   2emet 13
   ccsd
   maxiter 300
   lshift 0.8
 end

# set tce:print_integrals T
# set tce:qorb 10
# set tce:qela 1
# set tce:qelb 1

 set tce:qducc T
 set tce:nactv 9
 set tce:nonhf T
 set tce:ducc_model 3

 set tce:printtol 0.02

 task tce
================================================================================

 Output coordinates in a.u. (scale by  1.000000000 to convert to a.u.)

  No.       Tag          Charge          X              Y              Z
 ---- ---------------- ---------- -------------- -------------- --------------
    1 H                    1.0000     0.00000000    -3.67500000     0.00000000
    2 H                    1.0000     0.00000000     3.67500000     0.00000000

 Vector    1  Occ=1.040878D+00  E=-2.586623D-01  Symmetry=a

 Vector    2  Occ=9.590824D-01  E=-2.412710D-01  Symmetry=a

 Vector    3  Occ=2.669981D-05  E=-1.460976D-05  Symmetry=a

 Vector    4  Occ=6.496874D-06  E=-3.713601D-06  Symmetry=a

 Vector    5  Occ=6.496874D-06  E=-3.713601D-06  Symmetry=a

 Vector    6  Occ=5.576339D-08  E=-5.058737D-08  Symmetry=a

 Vector    7  Occ=5.576339D-08  E=-5.058737D-08  Symmetry=a

 Vector    8  Occ=3.735985D-08  E=-2.703926D-08  Symmetry=a

 Vector    9  Occ=2.255585D-08  E=-2.076603D-08  Symmetry=a

 Vector   10  Occ=8.694806D-09  E=-1.003427D-08  Symmetry=a

 Vector   11  Occ=0.000000D+00  E= 4.229491D-01  Symmetry=a

 Vector   12  Occ=0.000000D+00  E= 6.027378D-01  Symmetry=a

 Vector   13  Occ=0.000000D+00  E= 8.233258D-01  Symmetry=a

 Vector   14  Occ=0.000000D+00  E= 1.136209D+00  Symmetry=a

 Vector   15  Occ=0.000000D+00  E= 1.136209D+00  Symmetry=a

 Vector   16  Occ=0.000000D+00  E= 1.749677D+00  Symmetry=a

 Vector   17  Occ=0.000000D+00  E= 1.837629D+00  Symmetry=a

 Vector   18  Occ=0.000000D+00  E= 1.837629D+00  Symmetry=a

 Vector   19  Occ=0.000000D+00  E= 1.920736D+00  Symmetry=a

 Vector   20  Occ=0.000000D+00  E= 2.051427D+00  Symmetry=a

         Total SCF energy =     -0.764891576881

 Vector    1  Occ=2.000000D+00  E=-2.586623D-01

 Vector    2  Occ=0.000000D+00  E=-2.412710D-01

 Vector    3  Occ=0.000000D+00  E=-1.460976D-05

 Vector    4  Occ=0.000000D+00  E=-3.713601D-06

 Vector    5  Occ=0.000000D+00  E=-3.713601D-06

 Vector    6  Occ=0.000000D+00  E=-5.058737D-08

 Vector    7  Occ=0.000000D+00  E=-5.058737D-08

 Vector    8  Occ=0.000000D+00  E=-2.703926D-08

 Vector    9  Occ=0.000000D+00  E=-2.076603D-08

 Vector   10  Occ=0.000000D+00  E=-1.003427D-08

 Vector   11  Occ=0.000000D+00  E= 4.229491D-01

 Vector   12  Occ=0.000000D+00  E= 6.027378D-01

       Multipole analysis of the density wrt the origin
       ------------------------------------------------

     L   x y z        total         open         nuclear
     -   - - -        -----         ----         -------
     0   0 0 0     -0.000000      0.000000      2.000000

     1   1 0 0     -0.000000      0.000000      0.000000
     1   0 1 0     -0.000000      0.000000      0.000000
     1   0 0 1      0.000000      0.000000      0.000000

     2   2 0 0     -2.037578      0.000000      0.000000
     2   1 1 0     -0.000000      0.000000      0.000000
     2   1 0 1      0.000000      0.000000      0.000000
     2   0 2 0     -1.685467      0.000000     27.011250
     2   0 1 1      0.000000      0.000000      0.000000

 CCSD total energy / hartree       =        -0.999982318932375
 Total times  cpu:       36.9s     wall:       39.8s
