============================== echo of input deck ==============================
 echo
 start H2
 title "H2"

 memory total 24 gb

 geometry units bohr
 symmetry c1
        H  0.00000000  0.00000000  0.00000000
        H  0.00000000  7.45  0.00000000
 end

 basis
   * library cc-pVQZ
 end

 mcscf
   active  10
   actelec 2
   multiplicity 1
   maxiter 40
   vectors input H2.mos
   vectors output H2.mos
 end

 task mcscf

 scf
   vectors input H2.mos
   vectors output H2-7.45.mos
   noscf
 end

 tce
   2eorb
   2emet 13
   ccsd
   maxiter 300
   lshift 0.8
 end

# set tce:print_integrals T
# set tce:qorb 10
# set tce:qela 1
# set tce:qelb 1

 set tce:qducc T
 set tce:nactv 9
 set tce:nonhf T
 set tce:ducc_model 3

 set tce:printtol 0.02

 task tce
================================================================================

 Output coordinates in a.u. (scale by  1.000000000 to convert to a.u.)

  No.       Tag          Charge          X              Y              Z
 ---- ---------------- ---------- -------------- -------------- --------------
    1 H                    1.0000     0.00000000    -3.72500000     0.00000000
    2 H                    1.0000     0.00000000     3.72500000     0.00000000

 Vector    1  Occ=1.037702D+00  E=-2.579938D-01  Symmetry=a

 Vector    2  Occ=9.622630D-01  E=-2.419412D-01  Symmetry=a

 Vector    3  Occ=2.372225D-05  E=-1.301001D-05  Symmetry=a

 Vector    4  Occ=5.751243D-06  E=-3.287925D-06  Symmetry=a

 Vector    5  Occ=5.751243D-06  E=-3.287925D-06  Symmetry=a

 Vector    6  Occ=6.063082D-08  E=-5.500049D-08  Symmetry=a

 Vector    7  Occ=6.063082D-08  E=-5.500049D-08  Symmetry=a

 Vector    8  Occ=2.878069D-08  E=-2.098827D-08  Symmetry=a

 Vector    9  Occ=1.808153D-08  E=-1.662802D-08  Symmetry=a

 Vector   10  Occ=6.860776D-09  E=-7.874707D-09  Symmetry=a

 Vector   11  Occ=0.000000D+00  E= 4.245084D-01  Symmetry=a

 Vector   12  Occ=0.000000D+00  E= 5.998891D-01  Symmetry=a

 Vector   13  Occ=0.000000D+00  E= 8.199071D-01  Symmetry=a

 Vector   14  Occ=0.000000D+00  E= 1.135817D+00  Symmetry=a

 Vector   15  Occ=0.000000D+00  E= 1.135817D+00  Symmetry=a

 Vector   16  Occ=0.000000D+00  E= 1.747177D+00  Symmetry=a

 Vector   17  Occ=0.000000D+00  E= 1.838135D+00  Symmetry=a

 Vector   18  Occ=0.000000D+00  E= 1.838135D+00  Symmetry=a

 Vector   19  Occ=0.000000D+00  E= 1.923466D+00  Symmetry=a

 Vector   20  Occ=0.000000D+00  E= 2.051501D+00  Symmetry=a

         Total SCF energy =     -0.763283559293

 Vector    1  Occ=2.000000D+00  E=-2.579938D-01

 Vector    2  Occ=0.000000D+00  E=-2.419412D-01

 Vector    3  Occ=0.000000D+00  E=-1.301001D-05

 Vector    4  Occ=0.000000D+00  E=-3.287925D-06

 Vector    5  Occ=0.000000D+00  E=-3.287925D-06

 Vector    6  Occ=0.000000D+00  E=-5.500049D-08

 Vector    7  Occ=0.000000D+00  E=-5.500049D-08

 Vector    8  Occ=0.000000D+00  E=-2.098827D-08

 Vector    9  Occ=0.000000D+00  E=-1.662802D-08

 Vector   10  Occ=0.000000D+00  E=-7.874707D-09

 Vector   11  Occ=0.000000D+00  E= 4.245084D-01

 Vector   12  Occ=0.000000D+00  E= 5.998891D-01

       Multipole analysis of the density wrt the origin
       ------------------------------------------------

     L   x y z        total         open         nuclear
     -   - - -        -----         ----         -------
     0   0 0 0     -0.000000      0.000000      2.000000

     1   1 0 0     -0.000000      0.000000      0.000000
     1   0 1 0     -0.000000      0.000000      0.000000
     1   0 0 1      0.000000      0.000000      0.000000

     2   2 0 0     -2.034949      0.000000      0.000000
     2   1 1 0     -0.000000      0.000000      0.000000
     2   1 0 1      0.000000      0.000000      0.000000
     2   0 2 0     -1.700647      0.000000     27.751250
     2   0 1 1      0.000000      0.000000      0.000000

 CCSD total energy / hartree       =        -0.999970217513681
 Total times  cpu:       38.1s     wall:       41.0s
