============================== echo of input deck ==============================
 echo
 start H2
 title "H2"

 memory total 24 gb

 geometry units bohr
 symmetry c1
        H  0.00000000  0.00000000  0.00000000
        H  0.00000000  7.95  0.00000000
 end

 basis
   * library cc-pVQZ
 end

 mcscf
   active  10
   actelec 2
   multiplicity 1
   maxiter 40
   vectors input H2.mos
   vectors output H2.mos
 end

 task mcscf

 scf
   vectors input H2.mos
   vectors output H2-7.95.mos
   noscf
 end

 tce
   2eorb
   2emet 13
   ccsd
   maxiter 300
   lshift 0.8
 end

# set tce:print_integrals T
# set tce:qorb 10
# set tce:qela 1
# set tce:qelb 1

 set tce:qducc T
 set tce:nactv 9
 set tce:nonhf T
 set tce:ducc_model 3

 set tce:printtol 0.02

 task tce
================================================================================

 Output coordinates in a.u. (scale by  1.000000000 to convert to a.u.)

  No.       Tag          Charge          X              Y              Z
 ---- ---------------- ---------- -------------- -------------- --------------
    1 H                    1.0000     0.00000000    -3.97500000     0.00000000
    2 H                    1.0000     0.00000000     3.97500000     0.00000000

 Vector    1  Occ=1.025150D+00  E=-2.555647D-01  Symmetry=a

 Vector    2  Occ=9.748303D-01  E=-2.443758D-01  Symmetry=a

 Vector    3  Occ=1.347155D-05  E=-7.864054D-06  Symmetry=a

 Vector    4  Occ=3.237897D-06  E=-1.955861D-06  Symmetry=a

 Vector    5  Occ=3.237897D-06  E=-1.955861D-06  Symmetry=a

 Vector    6  Occ=7.332956D-08  E=-6.599098D-08  Symmetry=a

 Vector    7  Occ=7.332956D-08  E=-6.599098D-08  Symmetry=a

 Vector    8  Occ=7.540031D-09  E=-6.599956D-09  Symmetry=a

 Vector    9  Occ=5.782404D-09  E=-5.960130D-09  Symmetry=a

 Vector   10  Occ=2.000082D-09  E=-2.535317D-09  Symmetry=a

 Vector   11  Occ=0.000000D+00  E= 4.335322D-01  Symmetry=a

 Vector   12  Occ=0.000000D+00  E= 5.878001D-01  Symmetry=a

 Vector   13  Occ=0.000000D+00  E= 8.037882D-01  Symmetry=a

 Vector   14  Occ=0.000000D+00  E= 1.134525D+00  Symmetry=a

 Vector   15  Occ=0.000000D+00  E= 1.134525D+00  Symmetry=a

 Vector   16  Occ=0.000000D+00  E= 1.735999D+00  Symmetry=a

 Vector   17  Occ=0.000000D+00  E= 1.839625D+00  Symmetry=a

 Vector   18  Occ=0.000000D+00  E= 1.839625D+00  Symmetry=a

 Vector   19  Occ=0.000000D+00  E= 1.932226D+00  Symmetry=a

 Vector   20  Occ=0.000000D+00  E= 2.051674D+00  Symmetry=a

         Total SCF energy =     -0.756257192758

 Vector    1  Occ=2.000000D+00  E=-2.555647D-01

 Vector    2  Occ=0.000000D+00  E=-2.443758D-01

 Vector    3  Occ=0.000000D+00  E=-7.864054D-06

 Vector    4  Occ=0.000000D+00  E=-1.955861D-06

 Vector    5  Occ=0.000000D+00  E=-1.955861D-06

 Vector    6  Occ=0.000000D+00  E=-6.599098D-08

 Vector    7  Occ=0.000000D+00  E=-6.599098D-08

 Vector    8  Occ=0.000000D+00  E=-6.599956D-09

 Vector    9  Occ=0.000000D+00  E=-5.960130D-09

 Vector   10  Occ=0.000000D+00  E=-2.535317D-09

 Vector   11  Occ=0.000000D+00  E= 4.335322D-01

 Vector   12  Occ=0.000000D+00  E= 5.878001D-01

       Multipole analysis of the density wrt the origin
       ------------------------------------------------

     L   x y z        total         open         nuclear
     -   - - -        -----         ----         -------
     0   0 0 0     -0.000000      0.000000      2.000000

     1   1 0 0     -0.000000      0.000000      0.000000
     1   0 1 0     -0.000000      0.000000      0.000000
     1   0 0 1      0.000000      0.000000      0.000000

     2   2 0 0     -2.024239      0.000000      0.000000
     2   1 1 0     -0.000000      0.000000      0.000000
     2   1 0 1      0.000000      0.000000      0.000000
     2   0 2 0     -1.768366      0.000000     31.601250
     2   0 1 1      0.000000      0.000000      0.000000

 CCSD total energy / hartree       =        -0.999931517273230
 Total times  cpu:       36.4s     wall:       39.5s
