============================== echo of input deck ==============================
 echo
 start H2O
 title "H2O"

 memory total 24 gb

 geometry units bohr
 symmetry c1
        O  0.00000000  0.00000000  0.00000000
        H  0.00000000  1.880319  0.00000000
        H  1.72558000 -0.64860000  0.00000000
 end

 basis spherical
   * library cc-pVTZ
 end

 mcscf
   active  8
   actelec 10
   multiplicity 1
   maxiter 40
   vectors input h2o.mos
   vectors output h2o.mos
 end

 task mcscf

 scf
   vectors input h2o.mos
   vectors output h2o-trash.mos
   noscf
 end

 tce
   2eorb
   2emet 13
   ccsd
 end

 set tce:print_integrals T
 set tce:qorb 8
 set tce:qela 5
 set tce:qelb 5

# set tce:qducc T
# set tce:nactv 3
# set tce:nonhf T
# set tce:ducc_model 3

 set tce:printtol 0.02

 task tce
================================================================================

 Output coordinates in a.u. (scale by  1.000000000 to convert to a.u.)

  No.       Tag          Charge          X              Y              Z
 ---- ---------------- ---------- -------------- -------------- --------------
    1 O                    8.0000    -0.17255800    -0.12317190     0.00000000
    2 H                    1.0000    -0.17255800     1.75714710     0.00000000
    3 H                    1.0000     1.55302200    -0.77177190     0.00000000

 Vector    1  Occ=1.999989D+00  E=-2.054588D+01  Symmetry=a

 Vector    2  Occ=1.998890D+00  E=-1.337182D+00  Symmetry=a

 Vector    3  Occ=1.982014D+00  E=-7.312109D-01  Symmetry=a

 Vector    4  Occ=1.976681D+00  E=-5.802050D-01  Symmetry=a

 Vector    5  Occ=1.975565D+00  E=-5.231580D-01  Symmetry=a

 Vector    6  Occ=2.521637D-02  E=-2.673182D-02  Symmetry=a

 Vector    7  Occ=2.401140D-02  E=-2.540359D-02  Symmetry=a

 Vector    8  Occ=1.763430D-02  E=-1.600662D-02  Symmetry=a

 Vector    9  Occ=0.000000D+00  E= 2.969259D-01  Symmetry=a

 Vector   10  Occ=0.000000D+00  E= 3.352605D-01  Symmetry=a

 Vector   11  Occ=0.000000D+00  E= 6.120639D-01  Symmetry=a

 Vector   12  Occ=0.000000D+00  E= 6.613944D-01  Symmetry=a

 Vector   13  Occ=0.000000D+00  E= 8.114209D-01  Symmetry=a

 Vector   14  Occ=0.000000D+00  E= 8.413342D-01  Symmetry=a

 Vector   15  Occ=0.000000D+00  E= 9.734122D-01  Symmetry=a

 Vector   16  Occ=0.000000D+00  E= 1.140316D+00  Symmetry=a

 Vector   17  Occ=0.000000D+00  E= 1.162702D+00  Symmetry=a

 Vector   18  Occ=0.000000D+00  E= 1.357489D+00  Symmetry=a

         Total SCF energy =    -76.051430058704

 Vector    2  Occ=2.000000D+00  E=-1.337182D+00

 Vector    3  Occ=2.000000D+00  E=-7.312109D-01

 Vector    4  Occ=2.000000D+00  E=-5.802050D-01

 Vector    5  Occ=2.000000D+00  E=-5.231580D-01

 Vector    6  Occ=0.000000D+00  E=-2.673182D-02

 Vector    7  Occ=0.000000D+00  E=-2.540359D-02

 Vector    8  Occ=0.000000D+00  E=-1.600662D-02

 Vector    9  Occ=0.000000D+00  E= 2.969259D-01

 Vector   10  Occ=0.000000D+00  E= 3.352605D-01

 Vector   11  Occ=0.000000D+00  E= 6.120639D-01

 Vector   12  Occ=0.000000D+00  E= 6.613944D-01

 Vector   13  Occ=0.000000D+00  E= 8.114209D-01

 Vector   14  Occ=0.000000D+00  E= 8.413342D-01

 Vector   15  Occ=0.000000D+00  E= 9.734122D-01

       Multipole analysis of the density wrt the origin
       ------------------------------------------------

     L   x y z        total         open         nuclear
     -   - - -        -----         ----         -------
     0   0 0 0     -0.000000      0.000000     10.000000

     1   1 0 0      0.587218      0.000000     -0.000000
     1   0 1 0      0.413988      0.000000      0.000000
     1   0 0 1     -0.000010      0.000000      0.000000

     2   2 0 0     -4.121490      0.000000      2.679864
     2   1 1 0     -0.820086      0.000000     -1.331754
     2   1 0 1     -0.000011      0.000000      0.000000
     2   0 2 0     -3.463422      0.000000      3.804568
     2   0 1 1     -0.000008      0.000000      0.000000

 CCSD total energy / hartree       =       -76.146664907313564
 Total times  cpu:       65.2s     wall:       92.1s
