============================== echo of input deck ==============================
 echo
 start H2O
 title "H2O"

 memory total 24 gb

 geometry units bohr
 symmetry c1
        O  0.00000000  0.00000000  0.00000000
        H  0.00000000  2.21214  0.00000000
        H  1.72558000 -0.64860000  0.00000000
 end

 basis spherical
   * library cc-pVTZ
 end

 mcscf
   active  8
   actelec 10
   multiplicity 1
   maxiter 40
   vectors input h2o.mos
   vectors output h2o.mos
 end

 task mcscf

 scf
   vectors input h2o.mos
   vectors output h2o-trash.mos
   noscf
 end

 tce
   2eorb
   2emet 13
   ccsd
 end

 set tce:print_integrals T
 set tce:qorb 8
 set tce:qela 5
 set tce:qelb 5

# set tce:qducc T
# set tce:nactv 3
# set tce:nonhf T
# set tce:ducc_model 3

 set tce:printtol 0.02

 task tce
================================================================================

 Output coordinates in a.u. (scale by  1.000000000 to convert to a.u.)

  No.       Tag          Charge          X              Y              Z
 ---- ---------------- ---------- -------------- -------------- --------------
    1 O                    8.0000    -0.17255800    -0.15635400     0.00000000
    2 H                    1.0000    -0.17255800     2.05578600     0.00000000
    3 H                    1.0000     1.55302200    -0.80495400     0.00000000

 Vector    1  Occ=1.999989D+00  E=-2.055829D+01  Symmetry=a

 Vector    2  Occ=1.998544D+00  E=-1.307422D+00  Symmetry=a

 Vector    3  Occ=1.980761D+00  E=-6.918006D-01  Symmetry=a

 Vector    4  Occ=1.975376D+00  E=-5.643549D-01  Symmetry=a

 Vector    5  Occ=1.960622D+00  E=-5.187457D-01  Symmetry=a

 Vector    6  Occ=4.062416D-02  E=-3.487545D-02  Symmetry=a

 Vector    7  Occ=2.535695D-02  E=-2.584481D-02  Symmetry=a

 Vector    8  Occ=1.872697D-02  E=-1.575284D-02  Symmetry=a

 Vector    9  Occ=0.000000D+00  E= 3.090479D-01  Symmetry=a

 Vector   10  Occ=0.000000D+00  E= 3.354195D-01  Symmetry=a

 Vector   11  Occ=0.000000D+00  E= 6.098809D-01  Symmetry=a

 Vector   12  Occ=0.000000D+00  E= 6.976179D-01  Symmetry=a

 Vector   13  Occ=0.000000D+00  E= 8.206856D-01  Symmetry=a

 Vector   14  Occ=0.000000D+00  E= 8.233528D-01  Symmetry=a

 Vector   15  Occ=0.000000D+00  E= 9.709382D-01  Symmetry=a

 Vector   16  Occ=0.000000D+00  E= 1.109362D+00  Symmetry=a

 Vector   17  Occ=0.000000D+00  E= 1.184088D+00  Symmetry=a

 Vector   18  Occ=0.000000D+00  E= 1.247001D+00  Symmetry=a

         Total SCF energy =    -76.016506607923

 Vector    2  Occ=2.000000D+00  E=-1.307422D+00

 Vector    3  Occ=2.000000D+00  E=-6.918006D-01

 Vector    4  Occ=2.000000D+00  E=-5.643549D-01

 Vector    5  Occ=2.000000D+00  E=-5.187457D-01

 Vector    6  Occ=0.000000D+00  E=-3.487545D-02

 Vector    7  Occ=0.000000D+00  E=-2.584481D-02

 Vector    8  Occ=0.000000D+00  E=-1.575284D-02

 Vector    9  Occ=0.000000D+00  E= 3.090479D-01

 Vector   10  Occ=0.000000D+00  E= 3.354195D-01

 Vector   11  Occ=0.000000D+00  E= 6.098809D-01

 Vector   12  Occ=0.000000D+00  E= 6.976179D-01

 Vector   13  Occ=0.000000D+00  E= 8.206856D-01

 Vector   14  Occ=0.000000D+00  E= 8.233528D-01

 Vector   15  Occ=0.000000D+00  E= 9.709382D-01

       Multipole analysis of the density wrt the origin
       ------------------------------------------------

     L   x y z        total         open         nuclear
     -   - - -        -----         ----         -------
     0   0 0 0     -0.000000      0.000000     10.000000

     1   1 0 0      0.571498      0.000000     -0.000000
     1   0 1 0      0.452690      0.000000      0.000000
     1   0 0 1      0.000000      0.000000      0.000000

     2   2 0 0     -4.248711      0.000000      2.679864
     2   1 1 0     -0.848496      0.000000     -1.389013
     2   1 0 1      0.000000      0.000000      0.000000
     2   0 2 0     -3.193770      0.000000      5.069780
     2   0 1 1      0.000000      0.000000      0.000000

 CCSD total energy / hartree       =       -76.120438472267324
 Total times  cpu:       65.7s     wall:       93.0s
