============================== echo of input deck ==============================
 echo
 start Be
 title "Be"

 memory total 24 gb

 geometry
 symmetry c1
        Be  0.00000000  0.00000000  0.00000000
 end

BASIS "ao basis" SPHERICAL PRINT
#BASIS SET: (12s,6p,3d,2f,1g) -> [5s,4p,3d,2f,1g]
Be    S
      1.463000E+04           9.200000E-05           0.000000E+00           0.000000E+00          -1.700000E-05           0.000000E+00
      2.191000E+03           7.130000E-04           0.000000E+00           0.000000E+00          -1.300000E-04           0.000000E+00
      4.982000E+02           3.735000E-03           0.000000E+00           0.000000E+00          -6.790000E-04           0.000000E+00
      1.409000E+02           1.546800E-02           0.000000E+00           0.000000E+00          -2.857000E-03           0.000000E+00
      4.586000E+01           5.287400E-02           0.000000E+00           0.000000E+00          -9.813000E-03           0.000000E+00
      1.647000E+01           1.456940E-01           0.000000E+00           0.000000E+00          -2.860900E-02           0.000000E+00
      6.319000E+00           3.026810E-01           0.000000E+00           0.000000E+00          -6.376000E-02           0.000000E+00
      2.535000E+00           4.049360E-01           0.000000E+00           0.000000E+00          -1.172310E-01           0.000000E+00
      1.035000E+00           2.223870E-01           0.000000E+00           0.000000E+00          -1.212020E-01           0.000000E+00
      2.528000E-01           1.291200E-02           1.000000E+00           0.000000E+00           2.532290E-01           0.000000E+00
      1.052000E-01          -4.648000E-03           0.000000E+00           1.000000E+00           5.818370E-01           0.000000E+00
      4.261000E-02           1.228000E-03           0.000000E+00           0.000000E+00           2.919540E-01           1.000000E+00
Be    P
      1.403000E+01           0.000000E+00           4.099000E-03           0.000000E+00           0.000000E+00
      3.168000E+00           0.000000E+00           2.562600E-02           0.000000E+00           0.000000E+00
      9.024000E-01           0.000000E+00           1.037680E-01           0.000000E+00           0.000000E+00
      3.036000E-01           1.000000E+00           3.115470E-01           0.000000E+00           0.000000E+00
      1.130000E-01           0.000000E+00           4.981280E-01           1.000000E+00           0.000000E+00
      4.286000E-02           0.000000E+00           2.588760E-01           0.000000E+00           1.000000E+00
Be    D
      1.128800E+00           1.000000E+00           0.000000E+00           0.000000E+00
      4.569000E-01           0.000000E+00           1.000000E+00           0.000000E+00
      1.850000E-01           0.000000E+00           0.000000E+00           1.000000E+00
Be    F
      4.768000E-01           1.000000E+00           0.000000E+00
      2.521000E-01           0.000000E+00           1.000000E+00
Be    G
      4.131000E-01           1.0000000
END

 tce
   2eorb
   2emet 13
   ccsd
   diis 50
 end

 set tce:print_integrals T
 set tce:qorb 5
 set tce:qela 2
 set tce:qelb 2

# set tce:qducc T
# set tce:nactv 7
# set tce:nonhf T
# set tce:ducc_model 6

 set tce:printtol 0.02

 task tce
================================================================================

 Output coordinates in angstroms (scale by  1.889725989 to convert to a.u.)

  No.       Tag          Charge          X              Y              Z
 ---- ---------------- ---------- -------------- -------------- --------------
    1 Be                   4.0000     0.00000000     0.00000000     0.00000000

         Total SCF energy =    -14.572968127196

 Vector    2  Occ=2.000000D+00  E=-3.092601D-01

 Vector    3  Occ=0.000000D+00  E= 4.497775D-02

 Vector    4  Occ=0.000000D+00  E= 4.497775D-02

 Vector    5  Occ=0.000000D+00  E= 4.497775D-02

 Vector    6  Occ=0.000000D+00  E= 1.331936D-01

 Vector    7  Occ=0.000000D+00  E= 2.016664D-01

 Vector    8  Occ=0.000000D+00  E= 2.016664D-01

 Vector    9  Occ=0.000000D+00  E= 2.016664D-01

 Vector   10  Occ=0.000000D+00  E= 4.912025D-01

 Vector   11  Occ=0.000000D+00  E= 4.912025D-01

 Vector   12  Occ=0.000000D+00  E= 4.912025D-01

 Vector   13  Occ=0.000000D+00  E= 4.912025D-01

 Vector   14  Occ=0.000000D+00  E= 4.912025D-01

 Vector   15  Occ=0.000000D+00  E= 6.950076D-01

       Multipole analysis of the density wrt the origin
       ------------------------------------------------

     L   x y z        total         open         nuclear
     -   - - -        -----         ----         -------
     0   0 0 0     -0.000000      0.000000      4.000000

     1   1 0 0     -0.000000      0.000000      0.000000
     1   0 1 0      0.000000      0.000000      0.000000
     1   0 0 1      0.000000      0.000000      0.000000

     2   2 0 0     -5.771175      0.000000      0.000000
     2   1 1 0      0.000000      0.000000      0.000000
     2   1 0 1     -0.000000      0.000000      0.000000
     2   0 2 0     -5.771175      0.000000      0.000000
     2   0 1 1      0.000000      0.000000      0.000000

 CCSD total energy / hartree       =       -14.585197486697712
 Total times  cpu:       56.0s     wall:       85.1s
