============================== echo of input deck ==============================
 echo
 start Be
 title "Be"

 memory total 24 gb

 geometry
 symmetry c1
        Be  0.00000000  0.00000000  0.00000000
 end

 basis
   * library cc-pVQZ
 end

 scf
   vectors input Be.mos
   vectors output Be-trash.mos
   noscf
 end

 tce
   2eorb
   2emet 13
   ccsd
 end

# set tce:print_integrals T
# set tce:qorb 4
# set tce:qela 1
# set tce:qelb 1

 set tce:qducc T
 set tce:nactv 3
 set tce:nonhf T
 set tce:ducc_model 3

 set tce:printtol 0.02

 task tce
================================================================================

 Output coordinates in angstroms (scale by  1.889725989 to convert to a.u.)

  No.       Tag          Charge          X              Y              Z
 ---- ---------------- ---------- -------------- -------------- --------------
    1 Be                   4.0000     0.00000000     0.00000000     0.00000000

         Total SCF energy =    -14.572971491734

 Vector    2  Occ=2.000000D+00  E=-3.092596D-01

 Vector    3  Occ=0.000000D+00  E= 4.369857D-02

 Vector    4  Occ=0.000000D+00  E= 4.369857D-02

 Vector    5  Occ=0.000000D+00  E= 4.369857D-02

 Vector    6  Occ=0.000000D+00  E= 9.791699D-02

 Vector    7  Occ=0.000000D+00  E= 1.832457D-01

 Vector    8  Occ=0.000000D+00  E= 1.832457D-01

 Vector    9  Occ=0.000000D+00  E= 1.832457D-01

 Vector   10  Occ=0.000000D+00  E= 4.070677D-01

 Vector   11  Occ=0.000000D+00  E= 4.294870D-01

 Vector   12  Occ=0.000000D+00  E= 4.294870D-01

 Vector   13  Occ=0.000000D+00  E= 4.294870D-01

 Vector   14  Occ=0.000000D+00  E= 4.294870D-01

 Vector   15  Occ=0.000000D+00  E= 4.294870D-01

 Vector   16  Occ=0.000000D+00  E= 5.487626D-01

       Multipole analysis of the density wrt the origin
       ------------------------------------------------

     L   x y z        total         open         nuclear
     -   - - -        -----         ----         -------
     0   0 0 0     -0.000000      0.000000      4.000000

     1   1 0 0     -0.000000      0.000000      0.000000
     1   0 1 0     -0.000000      0.000000      0.000000
     1   0 0 1      0.000000      0.000000      0.000000

     2   2 0 0     -5.770842      0.000000      0.000000
     2   1 1 0      0.000000      0.000000      0.000000
     2   1 0 1     -0.000000      0.000000      0.000000
     2   0 2 0     -5.770842      0.000000      0.000000
     2   0 1 1     -0.000000      0.000000      0.000000

 CCSD total energy / hartree       =       -14.651960345575255
 Total times  cpu:       56.5s     wall:       61.7s
