============================== echo of input deck ==============================
 echo
 start H2O
 title "H2O"

 memory total 24 gb

 geometry units bohr
 symmetry c1
        O  0.00000000  0.00000000  0.00000000
        H  0.00000000  1.52084625  0.00000000
        H  1.72558000 -0.64860000  0.00000000
 end

 basis spherical
   * library cc-pVTZ
 end

 mcscf
   active  8
   actelec 10
   multiplicity 1
   maxiter 40
   vectors input h2o.mos
   vectors output h2o.mos
 end

 task mcscf

 scf
   vectors input h2o.mos
   vectors output h2o-trash.mos
   noscf
 end

 tce
   2eorb
   2emet 13
   ccsd
 end

# set tce:print_integrals T
# set tce:qorb 8
# set tce:qela 5
# set tce:qelb 5

 set tce:qducc T
 set tce:nactv 3
 set tce:nonhf T
 set tce:ducc_model 6

 set tce:printtol 0.02

 task tce
================================================================================

 Output coordinates in a.u. (scale by  1.000000000 to convert to a.u.)

  No.       Tag          Charge          X              Y              Z
 ---- ---------------- ---------- -------------- -------------- --------------
    1 O                    8.0000    -0.17255800    -0.08722463     0.00000000
    2 H                    1.0000    -0.17255800     1.43362163     0.00000000
    3 H                    1.0000     1.55302200    -0.73582463     0.00000000

 Vector    1  Occ=1.999987D+00  E=-2.052890D+01  Symmetry=a

 Vector    2  Occ=1.999176D+00  E=-1.396144D+00  Symmetry=a

 Vector    3  Occ=1.984792D+00  E=-7.854604D-01  Symmetry=a

 Vector    4  Occ=1.983741D+00  E=-5.949293D-01  Symmetry=a

 Vector    5  Occ=1.977961D+00  E=-5.323354D-01  Symmetry=a

 Vector    6  Occ=2.272306D-02  E=-2.562039D-02  Symmetry=a

 Vector    7  Occ=1.605398D-02  E=-1.915789D-02  Symmetry=a

 Vector    8  Occ=1.556543D-02  E=-1.594612D-02  Symmetry=a

 Vector    9  Occ=0.000000D+00  E= 2.708834D-01  Symmetry=a

 Vector   10  Occ=0.000000D+00  E= 3.337617D-01  Symmetry=a

 Vector   11  Occ=0.000000D+00  E= 6.238681D-01  Symmetry=a

 Vector   12  Occ=0.000000D+00  E= 6.544541D-01  Symmetry=a

 Vector   13  Occ=0.000000D+00  E= 8.100318D-01  Symmetry=a

 Vector   14  Occ=0.000000D+00  E= 8.594761D-01  Symmetry=a

 Vector   15  Occ=0.000000D+00  E= 9.739744D-01  Symmetry=a

 Vector   16  Occ=0.000000D+00  E= 1.063922D+00  Symmetry=a

 Vector   17  Occ=0.000000D+00  E= 1.217899D+00  Symmetry=a

 Vector   18  Occ=0.000000D+00  E= 1.366713D+00  Symmetry=a

         Total SCF energy =    -76.026656456494

 Vector    2  Occ=2.000000D+00  E=-1.396144D+00

 Vector    3  Occ=2.000000D+00  E=-7.854604D-01

 Vector    4  Occ=2.000000D+00  E=-5.949293D-01

 Vector    5  Occ=2.000000D+00  E=-5.323354D-01

 Vector    6  Occ=0.000000D+00  E=-2.562039D-02

 Vector    7  Occ=0.000000D+00  E=-1.915789D-02

 Vector    8  Occ=0.000000D+00  E=-1.594612D-02

 Vector    9  Occ=0.000000D+00  E= 2.708834D-01

 Vector   10  Occ=0.000000D+00  E= 3.337617D-01

 Vector   11  Occ=0.000000D+00  E= 6.238681D-01

 Vector   12  Occ=0.000000D+00  E= 6.544541D-01

 Vector   13  Occ=0.000000D+00  E= 8.100318D-01

 Vector   14  Occ=0.000000D+00  E= 8.594761D-01

 Vector   15  Occ=0.000000D+00  E= 9.739744D-01

       Multipole analysis of the density wrt the origin
       ------------------------------------------------

     L   x y z        total         open         nuclear
     -   - - -        -----         ----         -------
     0   0 0 0     -0.000000      0.000000     10.000000

     1   1 0 0      0.610567      0.000000     -0.000000
     1   0 1 0      0.350082      0.000000     -0.000000
     1   0 0 1     -0.000001      0.000000      0.000000

     2   2 0 0     -3.961499      0.000000      2.679864
     2   1 1 0     -0.783455      0.000000     -1.269724
     2   1 0 1      0.000000      0.000000      0.000000
     2   0 2 0     -3.714767      0.000000      2.657574
     2   0 1 1     -0.000000      0.000000      0.000000

 CCSD total energy / hartree       =       -76.304358681571955
 Total times  cpu:      623.9s     wall:      630.7s
