============================== echo of input deck ==============================
 echo
 start H2O
 title "H2O"

 memory total 24 gb

 geometry units bohr
 symmetry c1
        O  0.00000000  0.00000000  0.00000000
        H  0.00000000  1.622236  0.00000000
        H  1.72558000 -0.64860000  0.00000000
 end

 basis spherical
   * library cc-pVTZ
 end

 mcscf
   active  8
   actelec 10
   multiplicity 1
   maxiter 40
   vectors input h2o.mos
   vectors output h2o.mos
 end

 task mcscf

 scf
   vectors input h2o.mos
   vectors output h2o-trash.mos
   noscf
 end

 tce
   2eorb
   2emet 13
   ccsd
 end

# set tce:print_integrals T
# set tce:qorb 8
# set tce:qela 5
# set tce:qelb 5

 set tce:qducc T
 set tce:nactv 3
 set tce:nonhf T
 set tce:ducc_model 6

 set tce:printtol 0.02

 task tce
================================================================================

 Output coordinates in a.u. (scale by  1.000000000 to convert to a.u.)

  No.       Tag          Charge          X              Y              Z
 ---- ---------------- ---------- -------------- -------------- --------------
    1 O                    8.0000    -0.17255800    -0.09736360     0.00000000
    2 H                    1.0000    -0.17255800     1.52487240     0.00000000
    3 H                    1.0000     1.55302200    -0.74596360     0.00000000

 Vector    1  Occ=1.999988D+00  E=-2.053404D+01  Symmetry=a

 Vector    2  Occ=1.999104D+00  E=-1.376180D+00  Symmetry=a

 Vector    3  Occ=1.983253D+00  E=-7.694295D-01  Symmetry=a

 Vector    4  Occ=1.982727D+00  E=-5.907606D-01  Symmetry=a

 Vector    5  Occ=1.977630D+00  E=-5.293413D-01  Symmetry=a

 Vector    6  Occ=2.306317D-02  E=-2.560825D-02  Symmetry=a

 Vector    7  Occ=1.773091D-02  E=-2.114340D-02  Symmetry=a

 Vector    8  Occ=1.650321D-02  E=-1.599512D-02  Symmetry=a

 Vector    9  Occ=0.000000D+00  E= 2.821713D-01  Symmetry=a

 Vector   10  Occ=0.000000D+00  E= 3.351529D-01  Symmetry=a

 Vector   11  Occ=0.000000D+00  E= 6.158986D-01  Symmetry=a

 Vector   12  Occ=0.000000D+00  E= 6.528068D-01  Symmetry=a

 Vector   13  Occ=0.000000D+00  E= 8.096096D-01  Symmetry=a

 Vector   14  Occ=0.000000D+00  E= 8.547091D-01  Symmetry=a

 Vector   15  Occ=0.000000D+00  E= 9.740411D-01  Symmetry=a

 Vector   16  Occ=0.000000D+00  E= 1.085637D+00  Symmetry=a

 Vector   17  Occ=0.000000D+00  E= 1.202245D+00  Symmetry=a

 Vector   18  Occ=0.000000D+00  E= 1.372968D+00  Symmetry=a

         Total SCF energy =    -76.045893198972

 Vector    2  Occ=2.000000D+00  E=-1.376180D+00

 Vector    3  Occ=2.000000D+00  E=-7.694295D-01

 Vector    4  Occ=2.000000D+00  E=-5.907606D-01

 Vector    5  Occ=2.000000D+00  E=-5.293413D-01

 Vector    6  Occ=0.000000D+00  E=-2.560825D-02

 Vector    7  Occ=0.000000D+00  E=-2.114340D-02

 Vector    8  Occ=0.000000D+00  E=-1.599512D-02

 Vector    9  Occ=0.000000D+00  E= 2.821713D-01

 Vector   10  Occ=0.000000D+00  E= 3.351529D-01

 Vector   11  Occ=0.000000D+00  E= 6.158986D-01

 Vector   12  Occ=0.000000D+00  E= 6.528068D-01

 Vector   13  Occ=0.000000D+00  E= 8.096096D-01

 Vector   14  Occ=0.000000D+00  E= 8.547091D-01

 Vector   15  Occ=0.000000D+00  E= 9.740411D-01

       Multipole analysis of the density wrt the origin
       ------------------------------------------------

     L   x y z        total         open         nuclear
     -   - - -        -----         ----         -------
     0   0 0 0     -0.000000      0.000000     10.000000

     1   1 0 0      0.603287      0.000000     -0.000000
     1   0 1 0      0.368838      0.000000      0.000000
     1   0 0 1      0.000001      0.000000      0.000000

     2   2 0 0     -4.008625      0.000000      2.679864
     2   1 1 0     -0.793764      0.000000     -1.287220
     2   1 0 1      0.000000      0.000000      0.000000
     2   0 2 0     -3.651935      0.000000      2.957535
     2   0 1 1      0.000000      0.000000      0.000000

 CCSD total energy / hartree       =       -76.324980819145068
 Total times  cpu:      530.0s     wall:      535.3s
