============================== echo of input deck ==============================
 echo
 start H2O
 title "H2O"

 memory total 24 gb

 geometry units bohr
 symmetry c1
        O  0.00000000  0.00000000  0.00000000
        H  0.00000000  1.6406705  0.00000000
        H  1.72558000 -0.64860000  0.00000000
 end

 basis spherical
   * library cc-pVTZ
 end

 mcscf
   active  8
   actelec 10
   multiplicity 1
   maxiter 40
   vectors input h2o.mos
   vectors output h2o.mos
 end

 task mcscf

 scf
   vectors input h2o.mos
   vectors output h2o-trash.mos
   noscf
 end

 tce
   2eorb
   2emet 13
   ccsd
 end

# set tce:print_integrals T
# set tce:qorb 8
# set tce:qela 5
# set tce:qelb 5

 set tce:qducc T
 set tce:nactv 3
 set tce:nonhf T
 set tce:ducc_model 6

 set tce:printtol 0.02

 task tce
================================================================================

 Output coordinates in a.u. (scale by  1.000000000 to convert to a.u.)

  No.       Tag          Charge          X              Y              Z
 ---- ---------------- ---------- -------------- -------------- --------------
    1 O                    8.0000    -0.17255800    -0.09920705     0.00000000
    2 H                    1.0000    -0.17255800     1.54146345     0.00000000
    3 H                    1.0000     1.55302200    -0.74780705     0.00000000

 Vector    1  Occ=1.999988D+00  E=-2.053499D+01  Symmetry=a

 Vector    2  Occ=1.999091D+00  E=-1.372752D+00  Symmetry=a

 Vector    3  Occ=1.983163D+00  E=-7.665405D-01  Symmetry=a

 Vector    4  Occ=1.982310D+00  E=-5.900065D-01  Symmetry=a

 Vector    5  Occ=1.977565D+00  E=-5.287842D-01  Symmetry=a

 Vector    6  Occ=2.313015D-02  E=-2.562400D-02  Symmetry=a

 Vector    7  Occ=1.816644D-02  E=-2.143529D-02  Symmetry=a

 Vector    8  Occ=1.658654D-02  E=-1.599997D-02  Symmetry=a

 Vector    9  Occ=0.000000D+00  E= 2.827289D-01  Symmetry=a

 Vector   10  Occ=0.000000D+00  E= 3.350305D-01  Symmetry=a

 Vector   11  Occ=0.000000D+00  E= 6.149603D-01  Symmetry=a

 Vector   12  Occ=0.000000D+00  E= 6.529543D-01  Symmetry=a

 Vector   13  Occ=0.000000D+00  E= 8.096651D-01  Symmetry=a

 Vector   14  Occ=0.000000D+00  E= 8.538040D-01  Symmetry=a

 Vector   15  Occ=0.000000D+00  E= 9.740317D-01  Symmetry=a

 Vector   16  Occ=0.000000D+00  E= 1.088995D+00  Symmetry=a

 Vector   17  Occ=0.000000D+00  E= 1.199356D+00  Symmetry=a

 Vector   18  Occ=0.000000D+00  E= 1.373766D+00  Symmetry=a

         Total SCF energy =    -76.048061021979

 Vector    2  Occ=2.000000D+00  E=-1.372752D+00

 Vector    3  Occ=2.000000D+00  E=-7.665405D-01

 Vector    4  Occ=2.000000D+00  E=-5.900065D-01

 Vector    5  Occ=2.000000D+00  E=-5.287842D-01

 Vector    6  Occ=0.000000D+00  E=-2.562400D-02

 Vector    7  Occ=0.000000D+00  E=-2.143529D-02

 Vector    8  Occ=0.000000D+00  E=-1.599997D-02

 Vector    9  Occ=0.000000D+00  E= 2.827289D-01

 Vector   10  Occ=0.000000D+00  E= 3.350305D-01

 Vector   11  Occ=0.000000D+00  E= 6.149603D-01

 Vector   12  Occ=0.000000D+00  E= 6.529543D-01

 Vector   13  Occ=0.000000D+00  E= 8.096651D-01

 Vector   14  Occ=0.000000D+00  E= 8.538040D-01

 Vector   15  Occ=0.000000D+00  E= 9.740317D-01

       Multipole analysis of the density wrt the origin
       ------------------------------------------------

     L   x y z        total         open         nuclear
     -   - - -        -----         ----         -------
     0   0 0 0     -0.000000      0.000000     10.000000

     1   1 0 0      0.602042      0.000000     -0.000000
     1   0 1 0      0.372231      0.000000     -0.000000
     1   0 0 1     -0.000001      0.000000      0.000000

     2   2 0 0     -4.017028      0.000000      2.679864
     2   1 1 0     -0.795680      0.000000     -1.290401
     2   1 0 1     -0.000000      0.000000      0.000000
     2   0 2 0     -3.639766      0.000000      3.014061
     2   0 1 1     -0.000000      0.000000      0.000000

 CCSD total energy / hartree       =       -76.327415244495228
 Total times  cpu:      673.5s     wall:      680.8s
