============================== echo of input deck ==============================
 echo
 start H2O
 title "H2O"

 memory total 24 gb

 geometry units bohr
 symmetry c1
        O  0.00000000  0.00000000  0.00000000
        H  0.00000000  1.66832225  0.00000000
        H  1.72558000 -0.64860000  0.00000000
 end

 basis spherical
   * library cc-pVTZ
 end

 mcscf
   active  8
   actelec 10
   multiplicity 1
   maxiter 40
   vectors input h2o.mos
   vectors output h2o.mos
 end

 task mcscf

 scf
   vectors input h2o.mos
   vectors output h2o-trash.mos
   noscf
 end

 tce
   2eorb
   2emet 13
   ccsd
 end

# set tce:print_integrals T
# set tce:qorb 8
# set tce:qela 5
# set tce:qelb 5

 set tce:qducc T
 set tce:nactv 3
 set tce:nonhf T
 set tce:ducc_model 6

 set tce:printtol 0.02

 task tce
================================================================================

 Output coordinates in a.u. (scale by  1.000000000 to convert to a.u.)

  No.       Tag          Charge          X              Y              Z
 ---- ---------------- ---------- -------------- -------------- --------------
    1 O                    8.0000    -0.17255800    -0.10197223     0.00000000
    2 H                    1.0000    -0.17255800     1.56635003     0.00000000
    3 H                    1.0000     1.55302200    -0.75057223     0.00000000

 Vector    1  Occ=1.999988D+00  E=-2.053634D+01  Symmetry=a

 Vector    2  Occ=1.999070D+00  E=-1.367917D+00  Symmetry=a

 Vector    3  Occ=1.983027D+00  E=-7.622671D-01  Symmetry=a

 Vector    4  Occ=1.981662D+00  E=-5.888988D-01  Symmetry=a

 Vector    5  Occ=1.977465D+00  E=-5.280386D-01  Symmetry=a

 Vector    6  Occ=2.323334D-02  E=-2.563946D-02  Symmetry=a

 Vector    7  Occ=1.884398D-02  E=-2.196903D-02  Symmetry=a

 Vector    8  Occ=1.671169D-02  E=-1.600868D-02  Symmetry=a

 Vector    9  Occ=0.000000D+00  E= 2.848339D-01  Symmetry=a

 Vector   10  Occ=0.000000D+00  E= 3.351711D-01  Symmetry=a

 Vector   11  Occ=0.000000D+00  E= 6.139149D-01  Symmetry=a

 Vector   12  Occ=0.000000D+00  E= 6.531036D-01  Symmetry=a

 Vector   13  Occ=0.000000D+00  E= 8.096994D-01  Symmetry=a

 Vector   14  Occ=0.000000D+00  E= 8.524262D-01  Symmetry=a

 Vector   15  Occ=0.000000D+00  E= 9.740022D-01  Symmetry=a

 Vector   16  Occ=0.000000D+00  E= 1.094750D+00  Symmetry=a

 Vector   17  Occ=0.000000D+00  E= 1.194983D+00  Symmetry=a

 Vector   18  Occ=0.000000D+00  E= 1.375387D+00  Symmetry=a

         Total SCF energy =    -76.050669575938

 Vector    2  Occ=2.000000D+00  E=-1.367917D+00

 Vector    3  Occ=2.000000D+00  E=-7.622671D-01

 Vector    4  Occ=2.000000D+00  E=-5.888988D-01

 Vector    5  Occ=2.000000D+00  E=-5.280386D-01

 Vector    6  Occ=0.000000D+00  E=-2.563946D-02

 Vector    7  Occ=0.000000D+00  E=-2.196903D-02

 Vector    8  Occ=0.000000D+00  E=-1.600868D-02

 Vector    9  Occ=0.000000D+00  E= 2.848339D-01

 Vector   10  Occ=0.000000D+00  E= 3.351711D-01

 Vector   11  Occ=0.000000D+00  E= 6.139149D-01

 Vector   12  Occ=0.000000D+00  E= 6.531036D-01

 Vector   13  Occ=0.000000D+00  E= 8.096994D-01

 Vector   14  Occ=0.000000D+00  E= 8.524262D-01

 Vector   15  Occ=0.000000D+00  E= 9.740022D-01

       Multipole analysis of the density wrt the origin
       ------------------------------------------------

     L   x y z        total         open         nuclear
     -   - - -        -----         ----         -------
     0   0 0 0     -0.000000      0.000000     10.000000

     1   1 0 0      0.600180      0.000000     -0.000000
     1   0 1 0      0.377323      0.000000     -0.000000
     1   0 0 1     -0.000001      0.000000      0.000000

     2   2 0 0     -4.029560      0.000000      2.679864
     2   1 1 0     -0.798545      0.000000     -1.295172
     2   1 0 1     -0.000000      0.000000      0.000000
     2   0 2 0     -3.621026      0.000000      3.099998
     2   0 1 1     -0.000000      0.000000      0.000000

 CCSD total energy / hartree       =       -76.330431045239393
 Total times  cpu:     2912.5s     wall:     2937.7s
