============================== echo of input deck ==============================
 echo
 start H2O
 title "H2O"

 memory total 24 gb

 geometry units bohr
 symmetry c1
        O  0.00000000  0.00000000  0.00000000
        H  0.00000000  1.87110175  0.00000000
        H  1.72558000 -0.64860000  0.00000000
 end

 basis spherical
   * library cc-pVTZ
 end

 mcscf
   active  8
   actelec 10
   multiplicity 1
   maxiter 40
   vectors input h2o.mos
   vectors output h2o.mos
 end

 task mcscf

 scf
   vectors input h2o.mos
   vectors output h2o-trash.mos
   noscf
 end

 tce
   2eorb
   2emet 13
   ccsd
 end

# set tce:print_integrals T
# set tce:qorb 8
# set tce:qela 5
# set tce:qelb 5

 set tce:qducc T
 set tce:nactv 3
 set tce:nonhf T
 set tce:ducc_model 6

 set tce:printtol 0.02

 task tce
================================================================================

 Output coordinates in a.u. (scale by  1.000000000 to convert to a.u.)

  No.       Tag          Charge          X              Y              Z
 ---- ---------------- ---------- -------------- -------------- --------------
    1 O                    8.0000    -0.17255800    -0.12225018     0.00000000
    2 H                    1.0000    -0.17255800     1.74885158     0.00000000
    3 H                    1.0000     1.55302200    -0.77085018     0.00000000

 Vector    1  Occ=1.999989D+00  E=-2.054550D+01  Symmetry=a

 Vector    2  Occ=1.998898D+00  E=-1.338300D+00  Symmetry=a

 Vector    3  Occ=1.982056D+00  E=-7.324836D-01  Symmetry=a

 Vector    4  Occ=1.976726D+00  E=-5.805970D-01  Symmetry=a

 Vector    5  Occ=1.975865D+00  E=-5.233359D-01  Symmetry=a

 Vector    6  Occ=2.490954D-02  E=-2.656870D-02  Symmetry=a

 Vector    7  Occ=2.396078D-02  E=-2.535329D-02  Symmetry=a

 Vector    8  Occ=1.759669D-02  E=-1.600943D-02  Symmetry=a

 Vector    9  Occ=0.000000D+00  E= 2.964625D-01  Symmetry=a

 Vector   10  Occ=0.000000D+00  E= 3.352650D-01  Symmetry=a

 Vector   11  Occ=0.000000D+00  E= 6.120428D-01  Symmetry=a

 Vector   12  Occ=0.000000D+00  E= 6.607309D-01  Symmetry=a

 Vector   13  Occ=0.000000D+00  E= 8.112852D-01  Symmetry=a

 Vector   14  Occ=0.000000D+00  E= 8.418282D-01  Symmetry=a

 Vector   15  Occ=0.000000D+00  E= 9.734505D-01  Symmetry=a

 Vector   16  Occ=0.000000D+00  E= 1.138522D+00  Symmetry=a

 Vector   17  Occ=0.000000D+00  E= 1.163875D+00  Symmetry=a

 Vector   18  Occ=0.000000D+00  E= 1.361478D+00  Symmetry=a

         Total SCF energy =    -76.051933429658

 Vector    2  Occ=2.000000D+00  E=-1.338300D+00

 Vector    3  Occ=2.000000D+00  E=-7.324836D-01

 Vector    4  Occ=2.000000D+00  E=-5.805970D-01

 Vector    5  Occ=2.000000D+00  E=-5.233359D-01

 Vector    6  Occ=0.000000D+00  E=-2.656870D-02

 Vector    7  Occ=0.000000D+00  E=-2.535329D-02

 Vector    8  Occ=0.000000D+00  E=-1.600943D-02

 Vector    9  Occ=0.000000D+00  E= 2.964625D-01

 Vector   10  Occ=0.000000D+00  E= 3.352650D-01

 Vector   11  Occ=0.000000D+00  E= 6.120428D-01

 Vector   12  Occ=0.000000D+00  E= 6.607309D-01

 Vector   13  Occ=0.000000D+00  E= 8.112852D-01

 Vector   14  Occ=0.000000D+00  E= 8.418282D-01

 Vector   15  Occ=0.000000D+00  E= 9.734505D-01

       Multipole analysis of the density wrt the origin
       ------------------------------------------------

     L   x y z        total         open         nuclear
     -   - - -        -----         ----         -------
     0   0 0 0     -0.000000      0.000000     10.000000

     1   1 0 0      0.587743      0.000000     -0.000000
     1   0 1 0      0.412516      0.000000      0.000000
     1   0 0 1      0.000007      0.000000      0.000000

     2   2 0 0     -4.117659      0.000000      2.679864
     2   1 1 0     -0.819181      0.000000     -1.330164
     2   1 0 1     -0.000002      0.000000      0.000000
     2   0 2 0     -3.470691      0.000000      3.772253
     2   0 1 1     -0.000001      0.000000      0.000000

 CCSD total energy / hartree       =       -76.334915998215664
 Total times  cpu:      948.6s     wall:      958.0s
