============================== echo of input deck ==============================
 echo
 start H2O
 title "H2O"

 memory total 24 gb

 geometry units bohr
 symmetry c1
        O  0.00000000  0.00000000  0.00000000
        H  0.00000000  2.617699  0.00000000
        H  1.72558000 -0.64860000  0.00000000
 end

 basis spherical
   * library cc-pVTZ
 end

 mcscf
   active  8
   actelec 10
   multiplicity 1
   maxiter 40
   vectors input h2o.mos
   vectors output h2o.mos
 end

 task mcscf

 scf
   vectors input h2o.mos
   vectors output h2o-trash.mos
   noscf
 end

 tce
   2eorb
   2emet 13
   ccsd
 end

# set tce:print_integrals T
# set tce:qorb 8
# set tce:qela 5
# set tce:qelb 5

 set tce:qducc T
 set tce:nactv 3
 set tce:nonhf T
 set tce:ducc_model 6

 set tce:printtol 0.02

 task tce
================================================================================

 Output coordinates in a.u. (scale by  1.000000000 to convert to a.u.)

  No.       Tag          Charge          X              Y              Z
 ---- ---------------- ---------- -------------- -------------- --------------
    1 O                    8.0000    -0.17255800    -0.19690990     0.00000000
    2 H                    1.0000    -0.17255800     2.42078910     0.00000000
    3 H                    1.0000     1.55302200    -0.84550990     0.00000000

 Vector    1  Occ=1.999990D+00  E=-2.057292D+01  Symmetry=a

 Vector    2  Occ=1.998134D+00  E=-1.292778D+00  Symmetry=a

 Vector    3  Occ=1.980281D+00  E=-6.649243D-01  Symmetry=a

 Vector    4  Occ=1.974210D+00  E=-5.377725D-01  Symmetry=a

 Vector    5  Occ=1.924130D+00  E=-5.201706D-01  Symmetry=a

 Vector    6  Occ=7.765213D-02  E=-5.018784D-02  Symmetry=a

 Vector    7  Occ=2.655952D-02  E=-2.611493D-02  Symmetry=a

 Vector    8  Occ=1.904340D-02  E=-1.505711D-02  Symmetry=a

 Vector    9  Occ=0.000000D+00  E= 3.163461D-01  Symmetry=a

 Vector   10  Occ=0.000000D+00  E= 3.415994D-01  Symmetry=a

 Vector   11  Occ=0.000000D+00  E= 6.064997D-01  Symmetry=a

 Vector   12  Occ=0.000000D+00  E= 7.485274D-01  Symmetry=a

 Vector   13  Occ=0.000000D+00  E= 8.019668D-01  Symmetry=a

 Vector   14  Occ=0.000000D+00  E= 8.408044D-01  Symmetry=a

 Vector   15  Occ=0.000000D+00  E= 9.636297D-01  Symmetry=a

 Vector   16  Occ=0.000000D+00  E= 1.054503D+00  Symmetry=a

 Vector   17  Occ=0.000000D+00  E= 1.086207D+00  Symmetry=a

 Vector   18  Occ=0.000000D+00  E= 1.280584D+00  Symmetry=a

         Total SCF energy =    -75.957055452009

 Vector    2  Occ=2.000000D+00  E=-1.292778D+00

 Vector    3  Occ=2.000000D+00  E=-6.649243D-01

 Vector    4  Occ=2.000000D+00  E=-5.377725D-01

 Vector    5  Occ=2.000000D+00  E=-5.201706D-01

 Vector    6  Occ=0.000000D+00  E=-5.018784D-02

 Vector    7  Occ=0.000000D+00  E=-2.611493D-02

 Vector    8  Occ=0.000000D+00  E=-1.505711D-02

 Vector    9  Occ=0.000000D+00  E= 3.163461D-01

 Vector   10  Occ=0.000000D+00  E= 3.415994D-01

 Vector   11  Occ=0.000000D+00  E= 6.064997D-01

 Vector   12  Occ=0.000000D+00  E= 7.485274D-01

 Vector   13  Occ=0.000000D+00  E= 8.019668D-01

 Vector   14  Occ=0.000000D+00  E= 8.408044D-01

 Vector   15  Occ=0.000000D+00  E= 9.636297D-01

       Multipole analysis of the density wrt the origin
       ------------------------------------------------

     L   x y z        total         open         nuclear
     -   - - -        -----         ----         -------
     0   0 0 0     -0.000000      0.000000     10.000000

     1   1 0 0      0.560350      0.000000     -0.000000
     1   0 1 0      0.443106      0.000000      0.000000
     1   0 0 1      0.000000      0.000000      0.000000

     2   2 0 0     -4.370933      0.000000      2.679864
     2   1 1 0     -0.863883      0.000000     -1.458995
     2   1 0 1     -0.000000      0.000000      0.000000
     2   0 2 0     -2.923993      0.000000      6.885295
     2   0 1 1     -0.000000      0.000000      0.000000

 CCSD total energy / hartree       =       -76.255783669867299
 Total times  cpu:      623.7s     wall:      629.1s
