============================== echo of input deck ==============================
 echo
 start H2O
 title "H2O"

 memory total 24 gb

 geometry units bohr
 symmetry c1
        O  0.00000000  0.00000000  0.00000000
        H  0.00000000  3.4103825  0.00000000
        H  1.72558000 -0.64860000  0.00000000
 end

 basis spherical
   * library cc-pVTZ
 end

 mcscf
   active  8
   actelec 10
   multiplicity 1
   maxiter 40
   vectors input h2o.mos
   vectors output h2o.mos
 end

 task mcscf

 scf
   vectors input h2o.mos
   vectors output h2o-trash.mos
   noscf
 end

 tce
   2eorb
   2emet 13
   ccsd
   maxiter 300
 end

# set tce:print_integrals T
# set tce:qorb 8
# set tce:qela 5
# set tce:qelb 5

 set tce:qducc T
 set tce:nactv 3
 set tce:nonhf T
 set tce:ducc_model 6

 set tce:printtol 0.02

 task tce
================================================================================

 Output coordinates in a.u. (scale by  1.000000000 to convert to a.u.)

  No.       Tag          Charge          X              Y              Z
 ---- ---------------- ---------- -------------- -------------- --------------
    1 O                    8.0000    -0.17255800    -0.27617825     0.00000000
    2 H                    1.0000    -0.17255800     3.13420425     0.00000000
    3 H                    1.0000     1.55302200    -0.92477825     0.00000000

 Vector    1  Occ=1.999991D+00  E=-2.060019D+01  Symmetry=a

 Vector    2  Occ=1.998195D+00  E=-1.297885D+00  Symmetry=a

 Vector    3  Occ=1.982613D+00  E=-6.631582D-01  Symmetry=a

 Vector    4  Occ=1.973951D+00  E=-5.368219D-01  Symmetry=a

 Vector    5  Occ=1.732906D+00  E=-4.635521D-01  Symmetry=a

 Vector    6  Occ=2.685100D-01  E=-1.065789D-01  Symmetry=a

 Vector    7  Occ=2.697796D-02  E=-2.630281D-02  Symmetry=a

 Vector    8  Occ=1.685672D-02  E=-1.370576D-02  Symmetry=a

 Vector    9  Occ=0.000000D+00  E= 3.044980D-01  Symmetry=a

 Vector   10  Occ=0.000000D+00  E= 3.704708D-01  Symmetry=a

 Vector   11  Occ=0.000000D+00  E= 6.094716D-01  Symmetry=a

 Vector   12  Occ=0.000000D+00  E= 7.744970D-01  Symmetry=a

 Vector   13  Occ=0.000000D+00  E= 7.933719D-01  Symmetry=a

 Vector   14  Occ=0.000000D+00  E= 8.707848D-01  Symmetry=a

 Vector   15  Occ=0.000000D+00  E= 9.140526D-01  Symmetry=a

 Vector   16  Occ=0.000000D+00  E= 9.385267D-01  Symmetry=a

 Vector   17  Occ=0.000000D+00  E= 9.787909D-01  Symmetry=a

 Vector   18  Occ=0.000000D+00  E= 1.323801D+00  Symmetry=a

         Total SCF energy =    -75.848710228151

 Vector    2  Occ=2.000000D+00  E=-1.297885D+00

 Vector    3  Occ=2.000000D+00  E=-6.631582D-01

 Vector    4  Occ=2.000000D+00  E=-5.368219D-01

 Vector    5  Occ=2.000000D+00  E=-4.635521D-01

 Vector    6  Occ=0.000000D+00  E=-1.065789D-01

 Vector    7  Occ=0.000000D+00  E=-2.630281D-02

 Vector    8  Occ=0.000000D+00  E=-1.370576D-02

 Vector    9  Occ=0.000000D+00  E= 3.044980D-01

 Vector   10  Occ=0.000000D+00  E= 3.704708D-01

 Vector   11  Occ=0.000000D+00  E= 6.094716D-01

 Vector   12  Occ=0.000000D+00  E= 7.744970D-01

 Vector   13  Occ=0.000000D+00  E= 7.933719D-01

 Vector   14  Occ=0.000000D+00  E= 8.707848D-01

 Vector   15  Occ=0.000000D+00  E= 9.140526D-01

       Multipole analysis of the density wrt the origin
       ------------------------------------------------

     L   x y z        total         open         nuclear
     -   - - -        -----         ----         -------
     0   0 0 0     -0.000000      0.000000     10.000000

     1   1 0 0      0.563235      0.000000     -0.000000
     1   0 1 0      0.234254      0.000000      0.000000
     1   0 0 1      0.000001      0.000000      0.000000

     2   2 0 0     -4.493771      0.000000      2.679864
     2   1 1 0     -0.806355      0.000000     -1.595779
     2   1 0 1     -0.000001      0.000000      0.000000
     2   0 2 0     -2.942807      0.000000     11.288646
     2   0 1 1     -0.000001      0.000000      0.000000

 CCSD total energy / hartree       =       -76.177826198795145
 Total times  cpu:      549.2s     wall:      556.9s
