============================== echo of input deck ==============================
 echo
 start HF
 title "HF"

 memory total 24 gb

 geometry units bohr
 symmetry c1
        F  0.00000000  0.00000000  0.00000000
        H  0.00000000  1.715175  0.00000000
 end

 basis spherical
   * library cc-pVTZ
 end

 mcscf
   active  8
   actelec 10
   multiplicity 1
   maxiter 40
   vectors input HF.mos
   vectors output HF.mos
 end

 task mcscf

 scf
   vectors input HF.mos
   vectors output HF-trash.mos
   noscf
 end

 tce
   2eorb
   2emet 13
   ccsd
   maxiter 500
 end

# set tce:print_integrals T
# set tce:qorb 8
# set tce:qela 5
# set tce:qelb 5

 set tce:qducc T
 set tce:nactv 3
 set tce:nonhf T
 set tce:ducc_model 6

 set tce:printtol 0.02

 task tce
================================================================================

 Output coordinates in a.u. (scale by  1.000000000 to convert to a.u.)

  No.       Tag          Charge          X              Y              Z
 ---- ---------------- ---------- -------------- -------------- --------------
    1 F                    9.0000     0.00000000    -0.17151750     0.00000000
    2 H                    1.0000     0.00000000     1.54365750     0.00000000

 Vector    1  Occ=1.999972D+00  E=-2.628690D+01  Symmetry=a

 Vector    2  Occ=1.999304D+00  E=-1.605702D+00  Symmetry=a

 Vector    3  Occ=1.999304D+00  E=-7.836216D-01  Symmetry=a

 Vector    4  Occ=1.995022D+00  E=-6.486582D-01  Symmetry=a

 Vector    5  Occ=1.978582D+00  E=-6.486476D-01  Symmetry=a

 Vector    6  Occ=2.092351D-02  E=-2.041723D-02  Symmetry=a

 Vector    7  Occ=4.928401D-03  E=-7.272132D-03  Symmetry=a

 Vector    8  Occ=1.963181D-03  E=-6.666470D-04  Symmetry=a

 Vector    9  Occ=0.000000D+00  E= 8.561865D-01  Symmetry=a

 Vector   10  Occ=0.000000D+00  E= 8.561889D-01  Symmetry=a

 Vector   11  Occ=0.000000D+00  E= 9.856308D-01  Symmetry=a

 Vector   12  Occ=0.000000D+00  E= 9.856358D-01  Symmetry=a

 Vector   13  Occ=0.000000D+00  E= 1.047419D+00  Symmetry=a

 Vector   14  Occ=0.000000D+00  E= 1.372337D+00  Symmetry=a

 Vector   15  Occ=0.000000D+00  E= 2.206445D+00  Symmetry=a

 Vector   16  Occ=0.000000D+00  E= 2.224789D+00  Symmetry=a

 Vector   17  Occ=0.000000D+00  E= 2.224789D+00  Symmetry=a

 Vector   18  Occ=0.000000D+00  E= 2.538234D+00  Symmetry=a

         Total SCF energy =   -100.057882347504

 Vector    2  Occ=2.000000D+00  E=-1.605702D+00

 Vector    3  Occ=2.000000D+00  E=-7.836216D-01

 Vector    4  Occ=2.000000D+00  E=-6.486582D-01

 Vector    5  Occ=2.000000D+00  E=-6.486476D-01

 Vector    6  Occ=0.000000D+00  E=-2.041723D-02

 Vector    7  Occ=0.000000D+00  E=-7.272132D-03

 Vector    8  Occ=0.000000D+00  E=-6.666470D-04

 Vector    9  Occ=0.000000D+00  E= 8.561865D-01

 Vector   10  Occ=0.000000D+00  E= 8.561889D-01

 Vector   11  Occ=0.000000D+00  E= 9.856308D-01

 Vector   12  Occ=0.000000D+00  E= 9.856358D-01

 Vector   13  Occ=0.000000D+00  E= 1.047419D+00

 Vector   14  Occ=0.000000D+00  E= 1.372337D+00

 Vector   15  Occ=0.000000D+00  E= 2.206445D+00

       Multipole analysis of the density wrt the origin
       ------------------------------------------------

     L   x y z        total         open         nuclear
     -   - - -        -----         ----         -------
     0   0 0 0     -0.000000      0.000000     10.000000

     1   1 0 0     -0.000000      0.000000      0.000000
     1   0 1 0      0.727701      0.000000      0.000000
     1   0 0 1      0.000000      0.000000      0.000000

     2   2 0 0     -4.113070      0.000000      0.000000
     2   1 1 0     -0.000000      0.000000      0.000000
     2   1 0 1     -0.000000      0.000000      0.000000
     2   0 2 0     -2.634953      0.000000      2.647643
     2   0 1 1     -0.000000      0.000000      0.000000

 CCSD total energy / hartree       =      -100.344774051224974
 Total times  cpu:      159.6s     wall:      164.8s
