============================== echo of input deck ==============================
 echo
 start HF
 title "HF"

 memory total 24 gb

 geometry units bohr
 symmetry c1
        F  0.00000000  0.00000000  0.00000000
        H  0.00000000  2.338875  0.00000000
 end

 basis spherical
   * library cc-pVTZ
 end

 mcscf
   active  8
   actelec 10
   multiplicity 1
   maxiter 40
   vectors input HF.mos
   vectors output HF.mos
 end

 task mcscf

 scf
   vectors input HF.mos
   vectors output HF-trash.mos
   noscf
 end

 tce
   2eorb
   2emet 13
   ccsd
   maxiter 500
 end

# set tce:print_integrals T
# set tce:qorb 8
# set tce:qela 5
# set tce:qelb 5

 set tce:qducc T
 set tce:nactv 3
 set tce:nonhf T
 set tce:ducc_model 6

 set tce:printtol 0.02

 task tce
================================================================================

 Output coordinates in a.u. (scale by  1.000000000 to convert to a.u.)

  No.       Tag          Charge          X              Y              Z
 ---- ---------------- ---------- -------------- -------------- --------------
    1 F                    9.0000     0.00000000    -0.23388750     0.00000000
    2 H                    1.0000     0.00000000     2.10498750     0.00000000

 Vector    1  Occ=1.999980D+00  E=-2.629934D+01  Symmetry=a

 Vector    2  Occ=1.999186D+00  E=-1.539375D+00  Symmetry=a

 Vector    3  Occ=1.999186D+00  E=-6.761344D-01  Symmetry=a

 Vector    4  Occ=1.994420D+00  E=-6.341594D-01  Symmetry=a

 Vector    5  Occ=1.933283D+00  E=-6.341593D-01  Symmetry=a

 Vector    6  Occ=6.691680D-02  E=-4.855051D-02  Symmetry=a

 Vector    7  Occ=4.811424D-03  E=-7.312082D-03  Symmetry=a

 Vector    8  Occ=2.216560D-03  E=-3.510992D-03  Symmetry=a

 Vector    9  Occ=0.000000D+00  E= 3.727790D-01  Symmetry=a

 Vector   10  Occ=0.000000D+00  E= 7.660580D-01  Symmetry=a

 Vector   11  Occ=0.000000D+00  E= 7.660580D-01  Symmetry=a

 Vector   12  Occ=0.000000D+00  E= 1.022091D+00  Symmetry=a

 Vector   13  Occ=0.000000D+00  E= 1.022091D+00  Symmetry=a

 Vector   14  Occ=0.000000D+00  E= 1.061618D+00  Symmetry=a

 Vector   15  Occ=0.000000D+00  E= 1.725039D+00  Symmetry=a

 Vector   16  Occ=0.000000D+00  E= 2.264549D+00  Symmetry=a

 Vector   17  Occ=0.000000D+00  E= 2.264549D+00  Symmetry=a

 Vector   18  Occ=0.000000D+00  E= 2.323830D+00  Symmetry=a

         Total SCF energy =    -99.982087796555

 Vector    2  Occ=2.000000D+00  E=-1.539375D+00

 Vector    3  Occ=2.000000D+00  E=-6.761344D-01

 Vector    4  Occ=2.000000D+00  E=-6.341594D-01

 Vector    5  Occ=2.000000D+00  E=-6.341593D-01

 Vector    6  Occ=0.000000D+00  E=-4.855051D-02

 Vector    7  Occ=0.000000D+00  E=-7.312082D-03

 Vector    8  Occ=0.000000D+00  E=-3.510992D-03

 Vector    9  Occ=0.000000D+00  E= 3.727790D-01

 Vector   10  Occ=0.000000D+00  E= 7.660580D-01

 Vector   11  Occ=0.000000D+00  E= 7.660580D-01

 Vector   12  Occ=0.000000D+00  E= 1.022091D+00

 Vector   13  Occ=0.000000D+00  E= 1.022091D+00

 Vector   14  Occ=0.000000D+00  E= 1.061618D+00

 Vector   15  Occ=0.000000D+00  E= 1.725039D+00

       Multipole analysis of the density wrt the origin
       ------------------------------------------------

     L   x y z        total         open         nuclear
     -   - - -        -----         ----         -------
     0   0 0 0     -0.000000      0.000000     10.000000

     1   1 0 0      0.000000      0.000000      0.000000
     1   0 1 0      0.859166      0.000000      0.000000
     1   0 0 1     -0.000000      0.000000      0.000000

     2   2 0 0     -4.309824      0.000000      0.000000
     2   1 1 0     -0.000000      0.000000      0.000000
     2   1 0 1      0.000000      0.000000      0.000000
     2   0 2 0     -1.943874      0.000000      4.923303
     2   0 1 1     -0.000000      0.000000      0.000000

 CCSD total energy / hartree       =      -100.284208092729159
 Total times  cpu:      153.8s     wall:      158.3s
