============================== echo of input deck ==============================
 echo
 start HF
 title "HF"

 memory total 24 gb

 geometry units bohr
 symmetry c1
        F  0.00000000  0.00000000  0.00000000
        H  0.00000000  3.1185  0.00000000
 end

 basis spherical
   * library cc-pVTZ
 end

 mcscf
   active  8
   actelec 10
   multiplicity 1
   maxiter 40
   vectors input HF.mos
   vectors output HF.mos
 end

 task mcscf

 scf
   vectors input HF.mos
   vectors output HF-trash.mos
   noscf
 end

 tce
   2eorb
   2emet 13
   ccsd
   maxiter 500
 end

# set tce:print_integrals T
# set tce:qorb 8
# set tce:qela 5
# set tce:qelb 5

 set tce:qducc T
 set tce:nactv 3
 set tce:nonhf T
 set tce:ducc_model 6

 set tce:printtol 0.02

 task tce
================================================================================

 Output coordinates in a.u. (scale by  1.000000000 to convert to a.u.)

  No.       Tag          Charge          X              Y              Z
 ---- ---------------- ---------- -------------- -------------- --------------
    1 F                    9.0000     0.00000000    -0.31185000     0.00000000
    2 H                    1.0000     0.00000000     2.80665000     0.00000000

 Vector    1  Occ=1.999983D+00  E=-2.633204D+01  Symmetry=a

 Vector    2  Occ=1.999284D+00  E=-1.537739D+00  Symmetry=a

 Vector    3  Occ=1.999284D+00  E=-6.552258D-01  Symmetry=a

 Vector    4  Occ=1.994836D+00  E=-6.552253D-01  Symmetry=a

 Vector    5  Occ=1.763840D+00  E=-5.699187D-01  Symmetry=a

 Vector    6  Occ=2.365143D-01  E=-1.085191D-01  Symmetry=a

 Vector    7  Occ=3.940558D-03  E=-5.856631D-03  Symmetry=a

 Vector    8  Occ=2.319897D-03  E=-3.310606D-03  Symmetry=a

 Vector    9  Occ=0.000000D+00  E= 3.782661D-01  Symmetry=a

 Vector   10  Occ=0.000000D+00  E= 7.283070D-01  Symmetry=a

 Vector   11  Occ=0.000000D+00  E= 7.283071D-01  Symmetry=a

 Vector   12  Occ=0.000000D+00  E= 9.256250D-01  Symmetry=a

 Vector   13  Occ=0.000000D+00  E= 1.004964D+00  Symmetry=a

 Vector   14  Occ=0.000000D+00  E= 1.004964D+00  Symmetry=a

 Vector   15  Occ=0.000000D+00  E= 1.555895D+00  Symmetry=a

 Vector   16  Occ=0.000000D+00  E= 2.253111D+00  Symmetry=a

 Vector   17  Occ=0.000000D+00  E= 2.253111D+00  Symmetry=a

 Vector   18  Occ=0.000000D+00  E= 2.267977D+00  Symmetry=a

         Total SCF energy =    -99.856556253970

 Vector    2  Occ=2.000000D+00  E=-1.537739D+00

 Vector    3  Occ=2.000000D+00  E=-6.552258D-01

 Vector    4  Occ=2.000000D+00  E=-6.552253D-01

 Vector    5  Occ=2.000000D+00  E=-5.699187D-01

 Vector    6  Occ=0.000000D+00  E=-1.085191D-01

 Vector    7  Occ=0.000000D+00  E=-5.856631D-03

 Vector    8  Occ=0.000000D+00  E=-3.310606D-03

 Vector    9  Occ=0.000000D+00  E= 3.782661D-01

 Vector   10  Occ=0.000000D+00  E= 7.283070D-01

 Vector   11  Occ=0.000000D+00  E= 7.283071D-01

 Vector   12  Occ=0.000000D+00  E= 9.256250D-01

 Vector   13  Occ=0.000000D+00  E= 1.004964D+00

 Vector   14  Occ=0.000000D+00  E= 1.004964D+00

 Vector   15  Occ=0.000000D+00  E= 1.555895D+00

       Multipole analysis of the density wrt the origin
       ------------------------------------------------

     L   x y z        total         open         nuclear
     -   - - -        -----         ----         -------
     0   0 0 0     -0.000000      0.000000     10.000000

     1   1 0 0     -0.000000      0.000000      0.000000
     1   0 1 0      0.772483      0.000000      0.000000
     1   0 0 1     -0.000000      0.000000      0.000000

     2   2 0 0     -4.485078      0.000000      0.000000
     2   1 1 0     -0.000000      0.000000      0.000000
     2   1 0 1      0.000000      0.000000      0.000000
     2   0 2 0     -1.487385      0.000000      8.752538
     2   0 1 1     -0.000000      0.000000      0.000000

 CCSD total energy / hartree       =      -100.189392098922937
 Total times  cpu:      145.0s     wall:      150.8s
