============================== echo of input deck ==============================
 echo
 start HF
 title "HF"

 memory total 24 gb

 geometry units bohr
 symmetry c1
        F  0.00000000  0.00000000  0.00000000
        H  0.00000000  3.378375  0.00000000
 end

 basis spherical
   * library cc-pVTZ
 end

 mcscf
   active  8
   actelec 10
   multiplicity 1
   maxiter 40
   vectors input HF.mos
   vectors output HF.mos
 end

 task mcscf

 scf
   vectors input HF.mos
   vectors output HF-trash.mos
   noscf
 end

 tce
   2eorb
   2emet 13
   ccsd
   maxiter 500
 end

# set tce:print_integrals T
# set tce:qorb 8
# set tce:qela 5
# set tce:qelb 5

 set tce:qducc T
 set tce:nactv 3
 set tce:nonhf T
 set tce:ducc_model 6

 set tce:printtol 0.02

 task tce
================================================================================

 Output coordinates in a.u. (scale by  1.000000000 to convert to a.u.)

  No.       Tag          Charge          X              Y              Z
 ---- ---------------- ---------- -------------- -------------- --------------
    1 F                    9.0000     0.00000000    -0.33783750     0.00000000
    2 H                    1.0000     0.00000000     3.04053750     0.00000000

 Vector    1  Occ=1.999982D+00  E=-2.634447D+01  Symmetry=a

 Vector    2  Occ=1.999355D+00  E=-1.545606D+00  Symmetry=a

 Vector    3  Occ=1.999355D+00  E=-6.666223D-01  Symmetry=a

 Vector    4  Occ=1.995129D+00  E=-6.666218D-01  Symmetry=a

 Vector    5  Occ=1.674276D+00  E=-5.398814D-01  Symmetry=a

 Vector    6  Occ=3.260103D-01  E=-1.350737D-01  Symmetry=a

 Vector    7  Occ=3.703853D-03  E=-5.494797D-03  Symmetry=a

 Vector    8  Occ=2.188717D-03  E=-3.246095D-03  Symmetry=a

 Vector    9  Occ=0.000000D+00  E= 3.812473D-01  Symmetry=a

 Vector   10  Occ=0.000000D+00  E= 7.291498D-01  Symmetry=a

 Vector   11  Occ=0.000000D+00  E= 7.291498D-01  Symmetry=a

 Vector   12  Occ=0.000000D+00  E= 8.760221D-01  Symmetry=a

 Vector   13  Occ=0.000000D+00  E= 9.904543D-01  Symmetry=a

 Vector   14  Occ=0.000000D+00  E= 9.904544D-01  Symmetry=a

 Vector   15  Occ=0.000000D+00  E= 1.484322D+00  Symmetry=a

 Vector   16  Occ=0.000000D+00  E= 2.248818D+00  Symmetry=a

 Vector   17  Occ=0.000000D+00  E= 2.248818D+00  Symmetry=a

 Vector   18  Occ=0.000000D+00  E= 2.259642D+00  Symmetry=a

         Total SCF energy =    -99.819458422948

 Vector    2  Occ=2.000000D+00  E=-1.545606D+00

 Vector    3  Occ=2.000000D+00  E=-6.666223D-01

 Vector    4  Occ=2.000000D+00  E=-6.666218D-01

 Vector    5  Occ=2.000000D+00  E=-5.398814D-01

 Vector    6  Occ=0.000000D+00  E=-1.350737D-01

 Vector    7  Occ=0.000000D+00  E=-5.494797D-03

 Vector    8  Occ=0.000000D+00  E=-3.246095D-03

 Vector    9  Occ=0.000000D+00  E= 3.812473D-01

 Vector   10  Occ=0.000000D+00  E= 7.291498D-01

 Vector   11  Occ=0.000000D+00  E= 7.291498D-01

 Vector   12  Occ=0.000000D+00  E= 8.760221D-01

 Vector   13  Occ=0.000000D+00  E= 9.904543D-01

 Vector   14  Occ=0.000000D+00  E= 9.904544D-01

 Vector   15  Occ=0.000000D+00  E= 1.484322D+00

       Multipole analysis of the density wrt the origin
       ------------------------------------------------

     L   x y z        total         open         nuclear
     -   - - -        -----         ----         -------
     0   0 0 0     -0.000000      0.000000     10.000000

     1   1 0 0     -0.000000      0.000000      0.000000
     1   0 1 0      0.691630      0.000000      0.000000
     1   0 0 1     -0.000000      0.000000      0.000000

     2   2 0 0     -4.526516      0.000000      0.000000
     2   1 1 0     -0.000000      0.000000      0.000000
     2   1 0 1      0.000000      0.000000      0.000000
     2   0 2 0     -1.524865      0.000000     10.272076
     2   0 1 1     -0.000000      0.000000      0.000000

 CCSD total energy / hartree       =      -100.166608804770121
 Total times  cpu:      150.8s     wall:      156.4s
