============================== echo of input deck ==============================
 echo
 start H2
 title "H2"

 memory total 24 gb

 geometry units bohr
 symmetry c1
        H  0.00000000  0.00000000  0.00000000
        H  0.00000000  3.25  0.00000000
 end

 basis
   * library cc-pVQZ
 end

 mcscf
   active  10
   actelec 2
   multiplicity 1
   maxiter 40
   vectors input H2.mos
   vectors output H2.mos
 end

 task mcscf

 scf
   vectors input H2.mos
   vectors output H2-3.25.mos
   noscf
 end

 tce
   2eorb
   2emet 13
   ccsd
   maxiter 300
 end

 set tce:print_integrals T
 set tce:qorb 10
 set tce:qela 1
 set tce:qelb 1

# set tce:qducc T
# set tce:nactv 1
# set tce:nonhf T
# set tce:ducc_model 6

 set tce:printtol 0.02

 task tce
================================================================================

 Output coordinates in a.u. (scale by  1.000000000 to convert to a.u.)

  No.       Tag          Charge          X              Y              Z
 ---- ---------------- ---------- -------------- -------------- --------------
    1 H                    1.0000     0.00000000    -1.62500000     0.00000000
    2 H                    1.0000     0.00000000     1.62500000     0.00000000

 Vector    1  Occ=1.730757D+00  E=-4.195204D-01  Symmetry=a

 Vector    2  Occ=2.615164D-01  E=-8.476596D-02  Symmetry=a

 Vector    3  Occ=2.796968D-03  E=-1.647754D-03  Symmetry=a

 Vector    4  Occ=2.173937D-03  E=-1.275061D-03  Symmetry=a

 Vector    5  Occ=2.173937D-03  E=-1.275061D-03  Symmetry=a

 Vector    6  Occ=2.375330D-04  E=-1.717617D-04  Symmetry=a

 Vector    7  Occ=1.040566D-04  E=-9.366042D-05  Symmetry=a

 Vector    8  Occ=1.014644D-04  E=-8.834345D-05  Symmetry=a

 Vector    9  Occ=1.014644D-04  E=-8.834345D-05  Symmetry=a

 Vector   10  Occ=3.753424D-05  E=-4.061231D-05  Symmetry=a

 Vector   11  Occ=0.000000D+00  E= 4.795284D-01  Symmetry=a

 Vector   12  Occ=0.000000D+00  E= 8.160129D-01  Symmetry=a

 Vector   13  Occ=0.000000D+00  E= 1.044442D+00  Symmetry=a

 Vector   14  Occ=0.000000D+00  E= 1.404350D+00  Symmetry=a

 Vector   15  Occ=0.000000D+00  E= 1.404350D+00  Symmetry=a

 Vector   16  Occ=0.000000D+00  E= 1.650492D+00  Symmetry=a

 Vector   17  Occ=0.000000D+00  E= 1.650492D+00  Symmetry=a

 Vector   18  Occ=0.000000D+00  E= 1.892274D+00  Symmetry=a

 Vector   19  Occ=0.000000D+00  E= 1.900913D+00  Symmetry=a

 Vector   20  Occ=0.000000D+00  E= 1.900913D+00  Symmetry=a

         Total SCF energy =     -0.961924646703

 Vector    1  Occ=2.000000D+00  E=-4.195204D-01

 Vector    2  Occ=0.000000D+00  E=-8.476596D-02

 Vector    3  Occ=0.000000D+00  E=-1.647754D-03

 Vector    4  Occ=0.000000D+00  E=-1.275061D-03

 Vector    5  Occ=0.000000D+00  E=-1.275061D-03

 Vector    6  Occ=0.000000D+00  E=-1.717617D-04

 Vector    7  Occ=0.000000D+00  E=-9.366042D-05

 Vector    8  Occ=0.000000D+00  E=-8.834345D-05

 Vector    9  Occ=0.000000D+00  E=-8.834345D-05

 Vector   10  Occ=0.000000D+00  E=-4.061231D-05

 Vector   11  Occ=0.000000D+00  E= 4.795284D-01

 Vector   12  Occ=0.000000D+00  E= 8.160129D-01

       Multipole analysis of the density wrt the origin
       ------------------------------------------------

     L   x y z        total         open         nuclear
     -   - - -        -----         ----         -------
     0   0 0 0     -0.000000      0.000000      2.000000

     1   1 0 0     -0.000000      0.000000      0.000000
     1   0 1 0      0.000000      0.000000      0.000000
     1   0 0 1      0.000000      0.000000      0.000000

     2   2 0 0     -2.196603      0.000000      0.000000
     2   1 1 0      0.000000      0.000000      0.000000
     2   1 0 1     -0.000000      0.000000      0.000000
     2   0 2 0     -0.928542      0.000000      5.281250
     2   0 1 1      0.000000      0.000000      0.000000

 CCSD total energy / hartree       =        -1.042038022908212
 Total times  cpu:       16.4s     wall:       22.6s
