============================== echo of input deck ==============================
 echo
 start H2
 title "H2"

 memory total 24 gb

 geometry units bohr
 symmetry c1
        H  0.00000000  0.00000000  0.00000000
        H  0.00000000  3.45  0.00000000
 end

 basis
   * library cc-pVQZ
 end

 mcscf
   active  10
   actelec 2
   multiplicity 1
   maxiter 40
   vectors input H2.mos
   vectors output H2.mos
 end

 task mcscf

 scf
   vectors input H2.mos
   vectors output H2-3.45.mos
   noscf
 end

 tce
   2eorb
   2emet 13
   ccsd
   maxiter 300
 end

 set tce:print_integrals T
 set tce:qorb 10
 set tce:qela 1
 set tce:qelb 1

# set tce:qducc T
# set tce:nactv 1
# set tce:nonhf T
# set tce:ducc_model 6

 set tce:printtol 0.02

 task tce
================================================================================

 Output coordinates in a.u. (scale by  1.000000000 to convert to a.u.)

  No.       Tag          Charge          X              Y              Z
 ---- ---------------- ---------- -------------- -------------- --------------
    1 H                    1.0000     0.00000000    -1.72500000     0.00000000
    2 H                    1.0000     0.00000000     1.72500000     0.00000000

 Vector    1  Occ=1.676274D+00  E=-4.031823D-01  Symmetry=a

 Vector    2  Occ=3.172882D-01  E=-9.861257D-02  Symmetry=a

 Vector    3  Occ=2.419305D-03  E=-1.394657D-03  Symmetry=a

 Vector    4  Occ=1.775415D-03  E=-1.026819D-03  Symmetry=a

 Vector    5  Occ=1.775415D-03  E=-1.026819D-03  Symmetry=a

 Vector    6  Occ=1.947759D-04  E=-1.349045D-04  Symmetry=a

 Vector    7  Occ=8.110562D-05  E=-7.057675D-05  Symmetry=a

 Vector    8  Occ=8.110562D-05  E=-6.871472D-05  Symmetry=a

 Vector    9  Occ=8.002971D-05  E=-6.871472D-05  Symmetry=a

 Vector   10  Occ=3.029462D-05  E=-3.212889D-05  Symmetry=a

 Vector   11  Occ=0.000000D+00  E= 4.805152D-01  Symmetry=a

 Vector   12  Occ=0.000000D+00  E= 8.119234D-01  Symmetry=a

 Vector   13  Occ=0.000000D+00  E= 1.031437D+00  Symmetry=a

 Vector   14  Occ=0.000000D+00  E= 1.404317D+00  Symmetry=a

 Vector   15  Occ=0.000000D+00  E= 1.404317D+00  Symmetry=a

 Vector   16  Occ=0.000000D+00  E= 1.700075D+00  Symmetry=a

 Vector   17  Occ=0.000000D+00  E= 1.700075D+00  Symmetry=a

 Vector   18  Occ=0.000000D+00  E= 1.846313D+00  Symmetry=a

 Vector   19  Occ=0.000000D+00  E= 1.882135D+00  Symmetry=a

 Vector   20  Occ=0.000000D+00  E= 1.882135D+00  Symmetry=a

         Total SCF energy =     -0.944018388837

 Vector    1  Occ=2.000000D+00  E=-4.031823D-01

 Vector    2  Occ=0.000000D+00  E=-9.861257D-02

 Vector    3  Occ=0.000000D+00  E=-1.394657D-03

 Vector    4  Occ=0.000000D+00  E=-1.026819D-03

 Vector    5  Occ=0.000000D+00  E=-1.026819D-03

 Vector    6  Occ=0.000000D+00  E=-1.349045D-04

 Vector    7  Occ=0.000000D+00  E=-7.057675D-05

 Vector    8  Occ=0.000000D+00  E=-6.871472D-05

 Vector    9  Occ=0.000000D+00  E=-6.871472D-05

 Vector   10  Occ=0.000000D+00  E=-3.212889D-05

 Vector   11  Occ=0.000000D+00  E= 4.805152D-01

 Vector   12  Occ=0.000000D+00  E= 8.119234D-01

       Multipole analysis of the density wrt the origin
       ------------------------------------------------

     L   x y z        total         open         nuclear
     -   - - -        -----         ----         -------
     0   0 0 0     -0.000000      0.000000      2.000000

     1   1 0 0     -0.000000      0.000000      0.000000
     1   0 1 0     -0.000000      0.000000      0.000000
     1   0 0 1      0.000000      0.000000      0.000000

     2   2 0 0     -2.214618      0.000000      0.000000
     2   1 1 0      0.000000      0.000000      0.000000
     2   1 0 1     -0.000000      0.000000      0.000000
     2   0 2 0     -0.929107      0.000000      5.951250
     2   0 1 1      0.000000      0.000000      0.000000

 CCSD total energy / hartree       =        -1.032860357796734
 Total times  cpu:       15.8s     wall:       20.9s
