============================== echo of input deck ==============================
 echo
 start H2
 title "H2"

 memory total 24 gb

 geometry units bohr
 symmetry c1
        H  0.00000000  0.00000000  0.00000000
        H  0.00000000  3.50  0.00000000
 end

 basis
   * library cc-pVQZ
 end

 mcscf
   active  10
   actelec 2
   multiplicity 1
   maxiter 40
   vectors input H2.mos
   vectors output H2.mos
 end

 task mcscf

 scf
   vectors input H2.mos
   vectors output H2-3.50.mos
   noscf
 end

 tce
   2eorb
   2emet 13
   ccsd
   maxiter 300
 end

 set tce:print_integrals T
 set tce:qorb 10
 set tce:qela 1
 set tce:qelb 1

# set tce:qducc T
# set tce:nactv 1
# set tce:nonhf T
# set tce:ducc_model 6

 set tce:printtol 0.02

 task tce
================================================================================

 Output coordinates in a.u. (scale by  1.000000000 to convert to a.u.)

  No.       Tag          Charge          X              Y              Z
 ---- ---------------- ---------- -------------- -------------- --------------
    1 H                    1.0000     0.00000000    -1.75000000     0.00000000
    2 H                    1.0000     0.00000000     1.75000000     0.00000000

 Vector    1  Occ=1.661976D+00  E=-3.991642D-01  Symmetry=a

 Vector    2  Occ=3.318941D-01  E=-1.021759D-01  Symmetry=a

 Vector    3  Occ=2.328320D-03  E=-1.335309D-03  Symmetry=a

 Vector    4  Occ=1.681710D-03  E=-9.690701D-04  Symmetry=a

 Vector    5  Occ=1.681710D-03  E=-9.690701D-04  Symmetry=a

 Vector    6  Occ=1.835260D-04  E=-1.263657D-04  Symmetry=a

 Vector    7  Occ=7.599526D-05  E=-6.533819D-05  Symmetry=a

 Vector    8  Occ=7.599526D-05  E=-6.415483D-05  Symmetry=a

 Vector    9  Occ=7.393828D-05  E=-6.415483D-05  Symmetry=a

 Vector   10  Occ=2.849336D-05  E=-3.017428D-05  Symmetry=a

 Vector   11  Occ=0.000000D+00  E= 4.799441D-01  Symmetry=a

 Vector   12  Occ=0.000000D+00  E= 8.111361D-01  Symmetry=a

 Vector   13  Occ=0.000000D+00  E= 1.027298D+00  Symmetry=a

 Vector   14  Occ=0.000000D+00  E= 1.403270D+00  Symmetry=a

 Vector   15  Occ=0.000000D+00  E= 1.403270D+00  Symmetry=a

 Vector   16  Occ=0.000000D+00  E= 1.712273D+00  Symmetry=a

 Vector   17  Occ=0.000000D+00  E= 1.712273D+00  Symmetry=a

 Vector   18  Occ=0.000000D+00  E= 1.834207D+00  Symmetry=a

 Vector   19  Occ=0.000000D+00  E= 1.879032D+00  Symmetry=a

 Vector   20  Occ=0.000000D+00  E= 1.879032D+00  Symmetry=a

         Total SCF energy =     -0.939687699611

 Vector    1  Occ=2.000000D+00  E=-3.991642D-01

 Vector    2  Occ=0.000000D+00  E=-1.021759D-01

 Vector    3  Occ=0.000000D+00  E=-1.335309D-03

 Vector    4  Occ=0.000000D+00  E=-9.690701D-04

 Vector    5  Occ=0.000000D+00  E=-9.690701D-04

 Vector    6  Occ=0.000000D+00  E=-1.263657D-04

 Vector    7  Occ=0.000000D+00  E=-6.533819D-05

 Vector    8  Occ=0.000000D+00  E=-6.415483D-05

 Vector    9  Occ=0.000000D+00  E=-6.415483D-05

 Vector   10  Occ=0.000000D+00  E=-3.017428D-05

 Vector   11  Occ=0.000000D+00  E= 4.799441D-01

 Vector   12  Occ=0.000000D+00  E= 8.111361D-01

       Multipole analysis of the density wrt the origin
       ------------------------------------------------

     L   x y z        total         open         nuclear
     -   - - -        -----         ----         -------
     0   0 0 0     -0.000000      0.000000      2.000000

     1   1 0 0     -0.000000      0.000000      0.000000
     1   0 1 0     -0.000000      0.000000      0.000000
     1   0 0 1      0.000000      0.000000      0.000000

     2   2 0 0     -2.217653      0.000000      0.000000
     2   1 1 0      0.000000      0.000000      0.000000
     2   1 0 1     -0.000000      0.000000      0.000000
     2   0 2 0     -0.930585      0.000000      6.125000
     2   0 1 1      0.000000      0.000000      0.000000

 CCSD total energy / hartree       =        -1.030830670759096
 Total times  cpu:       19.0s     wall:       23.9s
