============================== echo of input deck ==============================
 echo
 start H2
 title "H2"

 memory total 24 gb

 geometry units bohr
 symmetry c1
        H  0.00000000  0.00000000  0.00000000
        H  0.00000000  3.75  0.00000000
 end

 basis
   * library cc-pVQZ
 end

 mcscf
   active  10
   actelec 2
   multiplicity 1
   maxiter 40
   vectors input H2.mos
   vectors output H2.mos
 end

 task mcscf

 scf
   vectors input H2.mos
   vectors output H2-3.75.mos
   noscf
 end

 tce
   2eorb
   2emet 13
   ccsd
   maxiter 300
 end

 set tce:print_integrals T
 set tce:qorb 10
 set tce:qela 1
 set tce:qelb 1

# set tce:qducc T
# set tce:nactv 1
# set tce:nonhf T
# set tce:ducc_model 6

 set tce:printtol 0.02

 task tce
================================================================================

 Output coordinates in a.u. (scale by  1.000000000 to convert to a.u.)

  No.       Tag          Charge          X              Y              Z
 ---- ---------------- ---------- -------------- -------------- --------------
    1 H                    1.0000     0.00000000    -1.87500000     0.00000000
    2 H                    1.0000     0.00000000     1.87500000     0.00000000

 Vector    1  Occ=1.587951D+00  E=-3.796142D-01  Symmetry=a

 Vector    2  Occ=4.073313D-01  E=-1.202099D-01  Symmetry=a

 Vector    3  Occ=1.905198D-03  E=-1.065328D-03  Symmetry=a

 Vector    4  Occ=1.253228D-03  E=-7.129290D-04  Symmetry=a

 Vector    5  Occ=1.253228D-03  E=-7.129290D-04  Symmetry=a

 Vector    6  Occ=1.314155D-04  E=-8.736181D-05  Symmetry=a

 Vector    7  Occ=5.330145D-05  E=-4.391907D-05  Symmetry=a

 Vector    8  Occ=5.330145D-05  E=-4.391907D-05  Symmetry=a

 Vector    9  Occ=4.903904D-05  E=-4.261941D-05  Symmetry=a

 Vector   10  Occ=1.928709D-05  E=-2.094178D-05  Symmetry=a

 Vector   11  Occ=0.000000D+00  E= 4.762676D-01  Symmetry=a

 Vector   12  Occ=0.000000D+00  E= 8.069175D-01  Symmetry=a

 Vector   13  Occ=0.000000D+00  E= 1.003868D+00  Symmetry=a

 Vector   14  Occ=0.000000D+00  E= 1.394289D+00  Symmetry=a

 Vector   15  Occ=0.000000D+00  E= 1.394289D+00  Symmetry=a

 Vector   16  Occ=0.000000D+00  E= 1.767663D+00  Symmetry=a

 Vector   17  Occ=0.000000D+00  E= 1.767663D+00  Symmetry=a

 Vector   18  Occ=0.000000D+00  E= 1.782305D+00  Symmetry=a

 Vector   19  Occ=0.000000D+00  E= 1.876686D+00  Symmetry=a

 Vector   20  Occ=0.000000D+00  E= 1.876686D+00  Symmetry=a

         Total SCF energy =     -0.918910746700

 Vector    1  Occ=2.000000D+00  E=-3.796142D-01

 Vector    2  Occ=0.000000D+00  E=-1.202099D-01

 Vector    3  Occ=0.000000D+00  E=-1.065328D-03

 Vector    4  Occ=0.000000D+00  E=-7.129290D-04

 Vector    5  Occ=0.000000D+00  E=-7.129290D-04

 Vector    6  Occ=0.000000D+00  E=-8.736181D-05

 Vector    7  Occ=0.000000D+00  E=-4.391907D-05

 Vector    8  Occ=0.000000D+00  E=-4.391907D-05

 Vector    9  Occ=0.000000D+00  E=-4.261941D-05

 Vector   10  Occ=0.000000D+00  E=-2.094178D-05

 Vector   11  Occ=0.000000D+00  E= 4.762676D-01

 Vector   12  Occ=0.000000D+00  E= 8.069175D-01

       Multipole analysis of the density wrt the origin
       ------------------------------------------------

     L   x y z        total         open         nuclear
     -   - - -        -----         ----         -------
     0   0 0 0     -0.000000      0.000000      2.000000

     1   1 0 0     -0.000000      0.000000      0.000000
     1   0 1 0     -0.000000      0.000000      0.000000
     1   0 0 1      0.000000      0.000000      0.000000

     2   2 0 0     -2.225277      0.000000      0.000000
     2   1 1 0      0.000000      0.000000      0.000000
     2   1 0 1     -0.000000      0.000000      0.000000
     2   0 2 0     -0.946075      0.000000      7.031250
     2   0 1 1      0.000000      0.000000      0.000000

 CCSD total energy / hartree       =        -1.022143925226769
 Total times  cpu:       17.0s     wall:       22.4s
