============================== echo of input deck ==============================
 echo
 start H2
 title "H2"

 memory total 24 gb

 geometry units bohr
 symmetry c1
        H  0.00000000  0.00000000  0.00000000
        H  0.00000000  4.85  0.00000000
 end

 basis
   * library cc-pVQZ
 end

 mcscf
   active  10
   actelec 2
   multiplicity 1
   maxiter 40
   vectors input H2.mos
   vectors output H2.mos
 end

 task mcscf

 scf
   vectors input H2.mos
   vectors output H2-4.85.mos
   noscf
 end

 tce
   2eorb
   2emet 13
   ccsd
   maxiter 300
 end

 set tce:print_integrals T
 set tce:qorb 10
 set tce:qela 1
 set tce:qelb 1

# set tce:qducc T
# set tce:nactv 1
# set tce:nonhf T
# set tce:ducc_model 6

 set tce:printtol 0.02

 task tce
================================================================================

 Output coordinates in a.u. (scale by  1.000000000 to convert to a.u.)

  No.       Tag          Charge          X              Y              Z
 ---- ---------------- ---------- -------------- -------------- --------------
    1 H                    1.0000     0.00000000    -2.42500000     0.00000000
    2 H                    1.0000     0.00000000     2.42500000     0.00000000

 Vector    1  Occ=1.290821D+00  E=-3.114917D-01  Symmetry=a

 Vector    2  Occ=7.080050D-01  E=-1.878873D-01  Symmetry=a

 Vector    3  Occ=6.426536D-04  E=-3.352308D-04  Symmetry=a

 Vector    4  Occ=2.502678D-04  E=-1.413673D-04  Symmetry=a

 Vector    5  Occ=2.502678D-04  E=-1.413673D-04  Symmetry=a

 Vector    6  Occ=1.537262D-05  E=-9.760809D-06  Symmetry=a

 Vector    7  Occ=4.626229D-06  E=-4.127718D-06  Symmetry=a

 Vector    8  Occ=4.626229D-06  E=-4.127718D-06  Symmetry=a

 Vector    9  Occ=4.203543D-06  E=-4.032390D-06  Symmetry=a

 Vector   10  Occ=1.785946D-06  E=-2.338231D-06  Symmetry=a

 Vector   11  Occ=0.000000D+00  E= 4.421280D-01  Symmetry=a

 Vector   12  Occ=0.000000D+00  E= 7.398572D-01  Symmetry=a

 Vector   13  Occ=0.000000D+00  E= 7.990973D-01  Symmetry=a

 Vector   14  Occ=0.000000D+00  E= 1.190432D+00  Symmetry=a

 Vector   15  Occ=0.000000D+00  E= 1.190432D+00  Symmetry=a

 Vector   16  Occ=0.000000D+00  E= 1.713143D+00  Symmetry=a

 Vector   17  Occ=0.000000D+00  E= 1.799260D+00  Symmetry=a

 Vector   18  Occ=0.000000D+00  E= 1.799260D+00  Symmetry=a

 Vector   19  Occ=0.000000D+00  E= 1.912520D+00  Symmetry=a

 Vector   20  Occ=0.000000D+00  E= 2.004750D+00  Symmetry=a

         Total SCF energy =     -0.844921368999

 Vector    1  Occ=2.000000D+00  E=-3.114917D-01

 Vector    2  Occ=0.000000D+00  E=-1.878873D-01

 Vector    3  Occ=0.000000D+00  E=-3.352308D-04

 Vector    4  Occ=0.000000D+00  E=-1.413673D-04

 Vector    5  Occ=0.000000D+00  E=-1.413673D-04

 Vector    6  Occ=0.000000D+00  E=-9.760809D-06

 Vector    7  Occ=0.000000D+00  E=-4.127718D-06

 Vector    8  Occ=0.000000D+00  E=-4.127718D-06

 Vector    9  Occ=0.000000D+00  E=-4.032390D-06

 Vector   10  Occ=0.000000D+00  E=-2.338231D-06

 Vector   11  Occ=0.000000D+00  E= 4.421280D-01

 Vector   12  Occ=0.000000D+00  E= 7.398572D-01

       Multipole analysis of the density wrt the origin
       ------------------------------------------------

     L   x y z        total         open         nuclear
     -   - - -        -----         ----         -------
     0   0 0 0     -0.000000      0.000000      2.000000

     1   1 0 0     -0.000000      0.000000      0.000000
     1   0 1 0     -0.000000      0.000000      0.000000
     1   0 0 1      0.000000      0.000000      0.000000

     2   2 0 0     -2.171523      0.000000      0.000000
     2   1 1 0     -0.000000      0.000000      0.000000
     2   1 0 1      0.000000      0.000000      0.000000
     2   0 2 0     -1.144241      0.000000     11.761250
     2   0 1 1      0.000000      0.000000      0.000000

 CCSD total energy / hartree       =        -1.004306415198165
 Total times  cpu:       18.8s     wall:       23.9s
