============================== echo of input deck ==============================
 echo
 start H2
 title "H2"

 memory total 24 gb

 geometry units bohr
 symmetry c1
        H  0.00000000  0.00000000  0.00000000
        H  0.00000000  7.30  0.00000000
 end

 basis
   * library cc-pVQZ
 end

 mcscf
   active  10
   actelec 2
   multiplicity 1
   maxiter 40
   vectors input H2.mos
   vectors output H2.mos
 end

 task mcscf

 scf
   vectors input H2.mos
   vectors output H2-7.30.mos
   noscf
 end

 tce
   2eorb
   2emet 13
   ccsd
   maxiter 300
   lshift 0.4
 end

 set tce:print_integrals T
 set tce:qorb 10
 set tce:qela 1
 set tce:qelb 1

# set tce:qducc T
# set tce:nactv 1
# set tce:nonhf T
# set tce:ducc_model 6

 set tce:printtol 0.02

 task tce
================================================================================

 Output coordinates in a.u. (scale by  1.000000000 to convert to a.u.)

  No.       Tag          Charge          X              Y              Z
 ---- ---------------- ---------- -------------- -------------- --------------
    1 H                    1.0000     0.00000000    -3.65000000     0.00000000
    2 H                    1.0000     0.00000000     3.65000000     0.00000000

 Vector    1  Occ=1.042565D+00  E=-2.590174D-01  Symmetry=a

 Vector    2  Occ=9.573924D-01  E=-2.409148D-01  Symmetry=a

 Vector    3  Occ=2.834383D-05  E=-1.549091D-05  Symmetry=a

 Vector    4  Occ=6.910198D-06  E=-3.950200D-06  Symmetry=a

 Vector    5  Occ=6.910198D-06  E=-3.950200D-06  Symmetry=a

 Vector    6  Occ=5.301258D-08  E=-4.812196D-08  Symmetry=a

 Vector    7  Occ=5.301258D-08  E=-4.812196D-08  Symmetry=a

 Vector    8  Occ=4.255489D-08  E=-3.067957D-08  Symmetry=a

 Vector    9  Occ=2.520740D-08  E=-2.319569D-08  Symmetry=a

 Vector   10  Occ=9.818209D-09  E=-1.131512D-08  Symmetry=a

 Vector   11  Occ=0.000000D+00  E= 4.222553D-01  Symmetry=a

 Vector   12  Occ=0.000000D+00  E= 6.041882D-01  Symmetry=a

 Vector   13  Occ=0.000000D+00  E= 8.249663D-01  Symmetry=a

 Vector   14  Occ=0.000000D+00  E= 1.136441D+00  Symmetry=a

 Vector   15  Occ=0.000000D+00  E= 1.136441D+00  Symmetry=a

 Vector   16  Occ=0.000000D+00  E= 1.750910D+00  Symmetry=a

 Vector   17  Occ=0.000000D+00  E= 1.837349D+00  Symmetry=a

 Vector   18  Occ=0.000000D+00  E= 1.837349D+00  Symmetry=a

 Vector   19  Occ=0.000000D+00  E= 1.919247D+00  Symmetry=a

 Vector   20  Occ=0.000000D+00  E= 2.051389D+00  Symmetry=a

         Total SCF energy =     -0.765724349832

 Vector    1  Occ=2.000000D+00  E=-2.590174D-01

 Vector    2  Occ=0.000000D+00  E=-2.409148D-01

 Vector    3  Occ=0.000000D+00  E=-1.549091D-05

 Vector    4  Occ=0.000000D+00  E=-3.950200D-06

 Vector    5  Occ=0.000000D+00  E=-3.950200D-06

 Vector    6  Occ=0.000000D+00  E=-4.812196D-08

 Vector    7  Occ=0.000000D+00  E=-4.812196D-08

 Vector    8  Occ=0.000000D+00  E=-3.067957D-08

 Vector    9  Occ=0.000000D+00  E=-2.319569D-08

 Vector   10  Occ=0.000000D+00  E=-1.131512D-08

 Vector   11  Occ=0.000000D+00  E= 4.222553D-01

 Vector   12  Occ=0.000000D+00  E= 6.041882D-01

       Multipole analysis of the density wrt the origin
       ------------------------------------------------

     L   x y z        total         open         nuclear
     -   - - -        -----         ----         -------
     0   0 0 0     -0.000000      0.000000      2.000000

     1   1 0 0     -0.000000      0.000000      0.000000
     1   0 1 0     -0.000000      0.000000      0.000000
     1   0 0 1      0.000000      0.000000      0.000000

     2   2 0 0     -2.038966      0.000000      0.000000
     2   1 1 0     -0.000000      0.000000      0.000000
     2   1 0 1      0.000000      0.000000      0.000000
     2   0 2 0     -1.677665      0.000000     26.645000
     2   0 1 1      0.000000      0.000000      0.000000

 CCSD total energy / hartree       =        -0.999983399612245
 Total times  cpu:       24.0s     wall:       29.6s
