============================== echo of input deck ==============================
 echo
 start H2
 title "H2"

 memory total 24 gb

 geometry units bohr
 symmetry c1
        H  0.00000000  0.00000000  0.00000000
        H  0.00000000  7.40  0.00000000
 end

 basis
   * library cc-pVQZ
 end

 mcscf
   active  10
   actelec 2
   multiplicity 1
   maxiter 40
   vectors input H2.mos
   vectors output H2.mos
 end

 task mcscf

 scf
   vectors input H2.mos
   vectors output H2-7.40.mos
   noscf
 end

 tce
   2eorb
   2emet 13
   ccsd
   maxiter 300
   lshift 0.4
 end

 set tce:print_integrals T
 set tce:qorb 10
 set tce:qela 1
 set tce:qelb 1

# set tce:qducc T
# set tce:nactv 1
# set tce:nonhf T
# set tce:ducc_model 6

 set tce:printtol 0.02

 task tce
================================================================================

 Output coordinates in a.u. (scale by  1.000000000 to convert to a.u.)

  No.       Tag          Charge          X              Y              Z
 ---- ---------------- ---------- -------------- -------------- --------------
    1 H                    1.0000     0.00000000    -3.70000000     0.00000000
    2 H                    1.0000     0.00000000     3.70000000     0.00000000

 Vector    1  Occ=1.039258D+00  E=-2.583214D-01  Symmetry=a

 Vector    2  Occ=9.607045D-01  E=-2.416127D-01  Symmetry=a

 Vector    3  Occ=2.516174D-05  E=-1.378419D-05  Symmetry=a

 Vector    4  Occ=6.110905D-06  E=-3.493278D-06  Symmetry=a

 Vector    5  Occ=6.110905D-06  E=-3.493278D-06  Symmetry=a

 Vector    6  Occ=5.830166D-08  E=-5.288885D-08  Symmetry=a

 Vector    7  Occ=5.830166D-08  E=-5.288885D-08  Symmetry=a

 Vector    8  Occ=3.279681D-08  E=-2.382532D-08  Symmetry=a

 Vector    9  Occ=2.020025D-08  E=-1.858657D-08  Symmetry=a

 Vector   10  Occ=7.725800D-09  E=-8.892250D-09  Symmetry=a

 Vector   11  Occ=0.000000D+00  E= 4.237014D-01  Symmetry=a

 Vector   12  Occ=0.000000D+00  E= 6.013050D-01  Symmetry=a

 Vector   13  Occ=0.000000D+00  E= 8.216362D-01  Symmetry=a

 Vector   14  Occ=0.000000D+00  E= 1.136001D+00  Symmetry=a

 Vector   15  Occ=0.000000D+00  E= 1.136001D+00  Symmetry=a

 Vector   16  Occ=0.000000D+00  E= 1.748431D+00  Symmetry=a

 Vector   17  Occ=0.000000D+00  E= 1.837891D+00  Symmetry=a

 Vector   18  Occ=0.000000D+00  E= 1.837891D+00  Symmetry=a

 Vector   19  Occ=0.000000D+00  E= 1.922141D+00  Symmetry=a

 Vector   20  Occ=0.000000D+00  E= 2.051464D+00  Symmetry=a

         Total SCF energy =     -0.764078241311

 Vector    1  Occ=2.000000D+00  E=-2.583214D-01

 Vector    2  Occ=0.000000D+00  E=-2.416127D-01

 Vector    3  Occ=0.000000D+00  E=-1.378419D-05

 Vector    4  Occ=0.000000D+00  E=-3.493278D-06

 Vector    5  Occ=0.000000D+00  E=-3.493278D-06

 Vector    6  Occ=0.000000D+00  E=-5.288885D-08

 Vector    7  Occ=0.000000D+00  E=-5.288885D-08

 Vector    8  Occ=0.000000D+00  E=-2.382532D-08

 Vector    9  Occ=0.000000D+00  E=-1.858657D-08

 Vector   10  Occ=0.000000D+00  E=-8.892250D-09

 Vector   11  Occ=0.000000D+00  E= 4.237014D-01

 Vector   12  Occ=0.000000D+00  E= 6.013050D-01

       Multipole analysis of the density wrt the origin
       ------------------------------------------------

     L   x y z        total         open         nuclear
     -   - - -        -----         ----         -------
     0   0 0 0     -0.000000      0.000000      2.000000

     1   1 0 0     -0.000000      0.000000      0.000000
     1   0 1 0     -0.000000      0.000000      0.000000
     1   0 0 1      0.000000      0.000000      0.000000

     2   2 0 0     -2.036243      0.000000      0.000000
     2   1 1 0     -0.000000      0.000000      0.000000
     2   1 0 1      0.000000      0.000000      0.000000
     2   0 2 0     -1.693125      0.000000     27.380000
     2   0 1 1      0.000000      0.000000      0.000000

 CCSD total energy / hartree       =        -0.999970425894166
 Total times  cpu:       27.5s     wall:       35.1s
