============================== echo of input deck ==============================
 echo
 start HF
 title "HF"

 memory total 24 gb

 geometry units bohr
 symmetry c1
        F  0.00000000  0.00000000  0.00000000
        H  0.00000000  1.8104625  0.00000000
 end

 basis spherical
   * library cc-pVTZ
 end

 mcscf
   active  8
   actelec 10
   multiplicity 1
   maxiter 40
   vectors input HF.mos
   vectors output HF.mos
 end

 task mcscf

 scf
   vectors input HF.mos
   vectors output HF-trash.mos
   noscf
 end

 tce
   2eorb
   2emet 13
   ccsd
   maxiter 500
 end

 set tce:print_integrals T
 set tce:qorb 8
 set tce:qela 5
 set tce:qelb 5

# set tce:qducc T
# set tce:nactv 3
# set tce:nonhf T
# set tce:ducc_model 3

 set tce:printtol 0.02

 task tce
================================================================================

 Output coordinates in a.u. (scale by  1.000000000 to convert to a.u.)

  No.       Tag          Charge          X              Y              Z
 ---- ---------------- ---------- -------------- -------------- --------------
    1 F                    9.0000     0.00000000    -0.18104625     0.00000000
    2 H                    1.0000     0.00000000     1.62941625     0.00000000

 Vector    1  Occ=1.999974D+00  E=-2.628868D+01  Symmetry=a

 Vector    2  Occ=1.999276D+00  E=-1.591471D+00  Symmetry=a

 Vector    3  Occ=1.999276D+00  E=-7.691971D-01  Symmetry=a

 Vector    4  Occ=1.994874D+00  E=-6.450486D-01  Symmetry=a

 Vector    5  Occ=1.974584D+00  E=-6.450486D-01  Symmetry=a

 Vector    6  Occ=2.506367D-02  E=-2.778870D-02  Symmetry=a

 Vector    7  Occ=4.959708D-03  E=-8.236733D-03  Symmetry=a

 Vector    8  Occ=1.991448D-03  E=-3.746346D-03  Symmetry=a

 Vector    9  Occ=0.000000D+00  E= 3.773542D-01  Symmetry=a

 Vector   10  Occ=0.000000D+00  E= 8.386617D-01  Symmetry=a

 Vector   11  Occ=0.000000D+00  E= 8.386617D-01  Symmetry=a

 Vector   12  Occ=0.000000D+00  E= 9.946172D-01  Symmetry=a

 Vector   13  Occ=0.000000D+00  E= 9.946172D-01  Symmetry=a

 Vector   14  Occ=0.000000D+00  E= 1.172075D+00  Symmetry=a

 Vector   15  Occ=0.000000D+00  E= 1.564624D+00  Symmetry=a

 Vector   16  Occ=0.000000D+00  E= 2.230418D+00  Symmetry=a

 Vector   17  Occ=0.000000D+00  E= 2.230418D+00  Symmetry=a

 Vector   18  Occ=0.000000D+00  E= 2.502105D+00  Symmetry=a

         Total SCF energy =   -100.053789378424

 Vector    2  Occ=2.000000D+00  E=-1.591471D+00

 Vector    3  Occ=2.000000D+00  E=-7.691971D-01

 Vector    4  Occ=2.000000D+00  E=-6.450486D-01

 Vector    5  Occ=2.000000D+00  E=-6.450486D-01

 Vector    6  Occ=0.000000D+00  E=-2.778870D-02

 Vector    7  Occ=0.000000D+00  E=-8.236733D-03

 Vector    8  Occ=0.000000D+00  E=-3.746346D-03

 Vector    9  Occ=0.000000D+00  E= 3.773542D-01

 Vector   10  Occ=0.000000D+00  E= 8.386617D-01

 Vector   11  Occ=0.000000D+00  E= 8.386617D-01

 Vector   12  Occ=0.000000D+00  E= 9.946172D-01

 Vector   13  Occ=0.000000D+00  E= 9.946172D-01

 Vector   14  Occ=0.000000D+00  E= 1.172075D+00

 Vector   15  Occ=0.000000D+00  E= 1.564624D+00

       Multipole analysis of the density wrt the origin
       ------------------------------------------------

     L   x y z        total         open         nuclear
     -   - - -        -----         ----         -------
     0   0 0 0     -0.000000      0.000000     10.000000

     1   1 0 0      0.000000      0.000000      0.000000
     1   0 1 0      0.755664      0.000000      0.000000
     1   0 0 1     -0.000000      0.000000      0.000000

     2   2 0 0     -4.146953      0.000000      0.000000
     2   1 1 0     -0.000000      0.000000      0.000000
     2   1 0 1     -0.000000      0.000000      0.000000
     2   0 2 0     -2.534109      0.000000      2.949997
     2   0 1 1     -0.000000      0.000000      0.000000

 CCSD total energy / hartree       =      -100.104850831873108
 Total times  cpu:       77.4s     wall:      108.4s
