============================== echo of input deck ==============================
 echo
 start HF
 title "HF"

 memory total 24 gb

 geometry units bohr
 symmetry c1
        F  0.00000000  0.00000000  0.00000000
        H  0.00000000  1.923075  0.00000000
 end

 basis spherical
   * library cc-pVTZ
 end

 mcscf
   active  8
   actelec 10
   multiplicity 1
   maxiter 40
   vectors input HF.mos
   vectors output HF.mos
 end

 task mcscf

 scf
   vectors input HF.mos
   vectors output HF-trash.mos
   noscf
 end

 tce
   2eorb
   2emet 13
   ccsd
   maxiter 500
 end

 set tce:print_integrals T
 set tce:qorb 8
 set tce:qela 5
 set tce:qelb 5

# set tce:qducc T
# set tce:nactv 3
# set tce:nonhf T
# set tce:ducc_model 3

 set tce:printtol 0.02

 task tce
================================================================================

 Output coordinates in a.u. (scale by  1.000000000 to convert to a.u.)

  No.       Tag          Charge          X              Y              Z
 ---- ---------------- ---------- -------------- -------------- --------------
    1 F                    9.0000     0.00000000    -0.19230750     0.00000000
    2 H                    1.0000     0.00000000     1.73076750     0.00000000

 Vector    1  Occ=1.999975D+00  E=-2.629052D+01  Symmetry=a

 Vector    2  Occ=1.999247D+00  E=-1.575170D+00  Symmetry=a

 Vector    3  Occ=1.999247D+00  E=-7.475266D-01  Symmetry=a

 Vector    4  Occ=1.994726D+00  E=-6.410439D-01  Symmetry=a

 Vector    5  Occ=1.968801D+00  E=-6.410439D-01  Symmetry=a

 Vector    6  Occ=3.099728D-02  E=-3.135499D-02  Symmetry=a

 Vector    7  Occ=4.972949D-03  E=-8.049493D-03  Symmetry=a

 Vector    8  Occ=2.033284D-03  E=-3.678463D-03  Symmetry=a

 Vector    9  Occ=0.000000D+00  E= 3.766917D-01  Symmetry=a

 Vector   10  Occ=0.000000D+00  E= 8.193679D-01  Symmetry=a

 Vector   11  Occ=0.000000D+00  E= 8.193679D-01  Symmetry=a

 Vector   12  Occ=0.000000D+00  E= 1.003536D+00  Symmetry=a

 Vector   13  Occ=0.000000D+00  E= 1.003536D+00  Symmetry=a

 Vector   14  Occ=0.000000D+00  E= 1.148808D+00  Symmetry=a

 Vector   15  Occ=0.000000D+00  E= 1.622027D+00  Symmetry=a

 Vector   16  Occ=0.000000D+00  E= 2.237822D+00  Symmetry=a

 Vector   17  Occ=0.000000D+00  E= 2.237822D+00  Symmetry=a

 Vector   18  Occ=0.000000D+00  E= 2.458699D+00  Symmetry=a

         Total SCF energy =   -100.043482046428

 Vector    2  Occ=2.000000D+00  E=-1.575170D+00

 Vector    3  Occ=2.000000D+00  E=-7.475266D-01

 Vector    4  Occ=2.000000D+00  E=-6.410439D-01

 Vector    5  Occ=2.000000D+00  E=-6.410439D-01

 Vector    6  Occ=0.000000D+00  E=-3.135499D-02

 Vector    7  Occ=0.000000D+00  E=-8.049493D-03

 Vector    8  Occ=0.000000D+00  E=-3.678463D-03

 Vector    9  Occ=0.000000D+00  E= 3.766917D-01

 Vector   10  Occ=0.000000D+00  E= 8.193679D-01

 Vector   11  Occ=0.000000D+00  E= 8.193679D-01

 Vector   12  Occ=0.000000D+00  E= 1.003536D+00

 Vector   13  Occ=0.000000D+00  E= 1.003536D+00

 Vector   14  Occ=0.000000D+00  E= 1.148808D+00

 Vector   15  Occ=0.000000D+00  E= 1.622027D+00

       Multipole analysis of the density wrt the origin
       ------------------------------------------------

     L   x y z        total         open         nuclear
     -   - - -        -----         ----         -------
     0   0 0 0     -0.000000      0.000000     10.000000

     1   1 0 0      0.000000      0.000000      0.000000
     1   0 1 0      0.786005      0.000000      0.000000
     1   0 0 1      0.000000      0.000000      0.000000

     2   2 0 0     -4.185115      0.000000      0.000000
     2   1 1 0     -0.000000      0.000000      0.000000
     2   1 0 1     -0.000000      0.000000      0.000000
     2   0 2 0     -2.409105      0.000000      3.328396
     2   0 1 1     -0.000000      0.000000      0.000000

 CCSD total energy / hartree       =      -100.097628821788817
 Total times  cpu:       86.1s     wall:      120.7s
