============================== echo of input deck ==============================
 echo
 start HF
 title "HF"

 memory total 24 gb

 geometry units bohr
 symmetry c1
        F  0.00000000  0.00000000  0.00000000
        H  0.00000000  2.1916125  0.00000000
 end

 basis spherical
   * library cc-pVTZ
 end

 mcscf
   active  8
   actelec 10
   multiplicity 1
   maxiter 40
   vectors input HF.mos
   vectors output HF.mos
 end

 task mcscf

 scf
   vectors input HF.mos
   vectors output HF-trash.mos
   noscf
 end

 tce
   2eorb
   2emet 13
   ccsd
   maxiter 500
 end

 set tce:print_integrals T
 set tce:qorb 8
 set tce:qela 5
 set tce:qelb 5

# set tce:qducc T
# set tce:nactv 3
# set tce:nonhf T
# set tce:ducc_model 3

 set tce:printtol 0.02

 task tce
================================================================================

 Output coordinates in a.u. (scale by  1.000000000 to convert to a.u.)

  No.       Tag          Charge          X              Y              Z
 ---- ---------------- ---------- -------------- -------------- --------------
    1 F                    9.0000     0.00000000    -0.21916125     0.00000000
    2 H                    1.0000     0.00000000     1.97245125     0.00000000

 Vector    1  Occ=1.999979D+00  E=-2.629532D+01  Symmetry=a

 Vector    2  Occ=1.999198D+00  E=-1.548261D+00  Symmetry=a

 Vector    3  Occ=1.999198D+00  E=-6.996288D-01  Symmetry=a

 Vector    4  Occ=1.994483D+00  E=-6.351994D-01  Symmetry=a

 Vector    5  Occ=1.948953D+00  E=-6.351994D-01  Symmetry=a

 Vector    6  Occ=5.113261D-02  E=-4.172818D-02  Symmetry=a

 Vector    7  Occ=4.904799D-03  E=-7.568063D-03  Symmetry=a

 Vector    8  Occ=2.151728D-03  E=-3.564996D-03  Symmetry=a

 Vector    9  Occ=0.000000D+00  E= 3.750738D-01  Symmetry=a

 Vector   10  Occ=0.000000D+00  E= 7.819789D-01  Symmetry=a

 Vector   11  Occ=0.000000D+00  E= 7.819789D-01  Symmetry=a

 Vector   12  Occ=0.000000D+00  E= 1.017945D+00  Symmetry=a

 Vector   13  Occ=0.000000D+00  E= 1.017945D+00  Symmetry=a

 Vector   14  Occ=0.000000D+00  E= 1.091966D+00  Symmetry=a

 Vector   15  Occ=0.000000D+00  E= 1.714152D+00  Symmetry=a

 Vector   16  Occ=0.000000D+00  E= 2.256078D+00  Symmetry=a

 Vector   17  Occ=0.000000D+00  E= 2.256078D+00  Symmetry=a

 Vector   18  Occ=0.000000D+00  E= 2.364373D+00  Symmetry=a

         Total SCF energy =   -100.006024783639

 Vector    2  Occ=2.000000D+00  E=-1.548261D+00

 Vector    3  Occ=2.000000D+00  E=-6.996288D-01

 Vector    4  Occ=2.000000D+00  E=-6.351994D-01

 Vector    5  Occ=2.000000D+00  E=-6.351994D-01

 Vector    6  Occ=0.000000D+00  E=-4.172818D-02

 Vector    7  Occ=0.000000D+00  E=-7.568063D-03

 Vector    8  Occ=0.000000D+00  E=-3.564996D-03

 Vector    9  Occ=0.000000D+00  E= 3.750738D-01

 Vector   10  Occ=0.000000D+00  E= 7.819789D-01

 Vector   11  Occ=0.000000D+00  E= 7.819789D-01

 Vector   12  Occ=0.000000D+00  E= 1.017945D+00

 Vector   13  Occ=0.000000D+00  E= 1.017945D+00

 Vector   14  Occ=0.000000D+00  E= 1.091966D+00

 Vector   15  Occ=0.000000D+00  E= 1.714152D+00

       Multipole analysis of the density wrt the origin
       ------------------------------------------------

     L   x y z        total         open         nuclear
     -   - - -        -----         ----         -------
     0   0 0 0     -0.000000      0.000000     10.000000

     1   1 0 0     -0.000000      0.000000      0.000000
     1   0 1 0      0.841590      0.000000      0.000000
     1   0 0 1      0.000000      0.000000      0.000000

     2   2 0 0     -4.268403      0.000000      0.000000
     2   1 1 0      0.000000      0.000000      0.000000
     2   1 0 1     -0.000000      0.000000      0.000000
     2   0 2 0     -2.103351      0.000000      4.322849
     2   0 1 1      0.000000      0.000000      0.000000

 CCSD total energy / hartree       =      -100.068855660002555
 Total times  cpu:       94.8s     wall:      134.1s
