============================== echo of input deck ==============================
 echo
 start HF
 title "HF"

 memory total 24 gb

 geometry units bohr
 symmetry c1
        F  0.00000000  0.00000000  0.00000000
        H  0.00000000  2.5554375  0.00000000
 end

 basis spherical
   * library cc-pVTZ
 end

 mcscf
   active  8
   actelec 10
   multiplicity 1
   maxiter 40
   vectors input HF.mos
   vectors output HF.mos
 end

 task mcscf

 scf
   vectors input HF.mos
   vectors output HF-trash.mos
   noscf
 end

 tce
   2eorb
   2emet 13
   ccsd
   maxiter 500
 end

 set tce:print_integrals T
 set tce:qorb 8
 set tce:qela 5
 set tce:qelb 5

# set tce:qducc T
# set tce:nactv 3
# set tce:nonhf T
# set tce:ducc_model 3

 set tce:printtol 0.02

 task tce
================================================================================

 Output coordinates in a.u. (scale by  1.000000000 to convert to a.u.)

  No.       Tag          Charge          X              Y              Z
 ---- ---------------- ---------- -------------- -------------- --------------
    1 F                    9.0000     0.00000000    -0.25554375     0.00000000
    2 H                    1.0000     0.00000000     2.29989375     0.00000000

 Vector    1  Occ=1.999982D+00  E=-2.630574D+01  Symmetry=a

 Vector    2  Occ=1.999188D+00  E=-1.532496D+00  Symmetry=a

 Vector    3  Occ=1.999188D+00  E=-6.431076D-01  Symmetry=a

 Vector    4  Occ=1.994418D+00  E=-6.364609D-01  Symmetry=a

 Vector    5  Occ=1.902082D+00  E=-6.364609D-01  Symmetry=a

 Vector    6  Occ=9.823311D-02  E=-6.166069D-02  Symmetry=a

 Vector    7  Occ=4.613169D-03  E=-6.863371D-03  Symmetry=a

 Vector    8  Occ=2.296769D-03  E=-3.458887D-03  Symmetry=a

 Vector    9  Occ=0.000000D+00  E= 3.751670D-01  Symmetry=a

 Vector   10  Occ=0.000000D+00  E= 7.486462D-01  Symmetry=a

 Vector   11  Occ=0.000000D+00  E= 7.486462D-01  Symmetry=a

 Vector   12  Occ=0.000000D+00  E= 1.023026D+00  Symmetry=a

 Vector   13  Occ=0.000000D+00  E= 1.023026D+00  Symmetry=a

 Vector   14  Occ=0.000000D+00  E= 1.024284D+00  Symmetry=a

 Vector   15  Occ=0.000000D+00  E= 1.703450D+00  Symmetry=a

 Vector   16  Occ=0.000000D+00  E= 2.272064D+00  Symmetry=a

 Vector   17  Occ=0.000000D+00  E= 2.272064D+00  Symmetry=a

 Vector   18  Occ=0.000000D+00  E= 2.282761D+00  Symmetry=a

         Total SCF energy =    -99.945952810495

 Vector    2  Occ=2.000000D+00  E=-1.532496D+00

 Vector    3  Occ=2.000000D+00  E=-6.431076D-01

 Vector    4  Occ=2.000000D+00  E=-6.364609D-01

 Vector    5  Occ=2.000000D+00  E=-6.364609D-01

 Vector    6  Occ=0.000000D+00  E=-6.166069D-02

 Vector    7  Occ=0.000000D+00  E=-6.863371D-03

 Vector    8  Occ=0.000000D+00  E=-3.458887D-03

 Vector    9  Occ=0.000000D+00  E= 3.751670D-01

 Vector   10  Occ=0.000000D+00  E= 7.486462D-01

 Vector   11  Occ=0.000000D+00  E= 7.486462D-01

 Vector   12  Occ=0.000000D+00  E= 1.023026D+00

 Vector   13  Occ=0.000000D+00  E= 1.023026D+00

 Vector   14  Occ=0.000000D+00  E= 1.024284D+00

 Vector   15  Occ=0.000000D+00  E= 1.703450D+00

       Multipole analysis of the density wrt the origin
       ------------------------------------------------

     L   x y z        total         open         nuclear
     -   - - -        -----         ----         -------
     0   0 0 0     -0.000000      0.000000     10.000000

     1   1 0 0      0.000000      0.000000      0.000000
     1   0 1 0      0.865387      0.000000      0.000000
     1   0 0 1      0.000000      0.000000      0.000000

     2   2 0 0     -4.365820      0.000000      0.000000
     2   1 1 0      0.000000      0.000000      0.000000
     2   1 0 1      0.000000      0.000000      0.000000
     2   0 2 0     -1.739226      0.000000      5.877235
     2   0 1 1      0.000000      0.000000      0.000000

 CCSD total energy / hartree       =      -100.024365074284376
 Total times  cpu:      167.1s     wall:      235.2s
