============================== echo of input deck ==============================
 echo
 start HF
 title "HF"

 memory total 24 gb

 geometry units bohr
 symmetry c1
        F  0.00000000  0.00000000  0.00000000
        H  0.00000000  2.5727625  0.00000000
 end

 basis spherical
   * library cc-pVTZ
 end

 mcscf
   active  8
   actelec 10
   multiplicity 1
   maxiter 40
   vectors input HF.mos
   vectors output HF.mos
 end

 task mcscf

 scf
   vectors input HF.mos
   vectors output HF-trash.mos
   noscf
 end

 tce
   2eorb
   2emet 13
   ccsd
   maxiter 500
 end

 set tce:print_integrals T
 set tce:qorb 8
 set tce:qela 5
 set tce:qelb 5

# set tce:qducc T
# set tce:nactv 3
# set tce:nonhf T
# set tce:ducc_model 3

 set tce:printtol 0.02

 task tce
================================================================================

 Output coordinates in a.u. (scale by  1.000000000 to convert to a.u.)

  No.       Tag          Charge          X              Y              Z
 ---- ---------------- ---------- -------------- -------------- --------------
    1 F                    9.0000     0.00000000    -0.25727625     0.00000000
    2 H                    1.0000     0.00000000     2.31548625     0.00000000

 Vector    1  Occ=1.999982D+00  E=-2.630639D+01  Symmetry=a

 Vector    2  Occ=1.999189D+00  E=-1.532214D+00  Symmetry=a

 Vector    3  Occ=1.999189D+00  E=-6.406264D-01  Symmetry=a

 Vector    4  Occ=1.994422D+00  E=-6.367773D-01  Symmetry=a

 Vector    5  Occ=1.899104D+00  E=-6.367773D-01  Symmetry=a

 Vector    6  Occ=1.012169D-01  E=-6.281452D-02  Symmetry=a

 Vector    7  Occ=4.594580D-03  E=-6.829444D-03  Symmetry=a

 Vector    8  Occ=2.302087D-03  E=-3.454294D-03  Symmetry=a

 Vector    9  Occ=0.000000D+00  E= 3.752138D-01  Symmetry=a

 Vector   10  Occ=0.000000D+00  E= 7.474993D-01  Symmetry=a

 Vector   11  Occ=0.000000D+00  E= 7.474993D-01  Symmetry=a

 Vector   12  Occ=0.000000D+00  E= 1.021262D+00  Symmetry=a

 Vector   13  Occ=0.000000D+00  E= 1.022889D+00  Symmetry=a

 Vector   14  Occ=0.000000D+00  E= 1.022889D+00  Symmetry=a

 Vector   15  Occ=0.000000D+00  E= 1.700168D+00  Symmetry=a

 Vector   16  Occ=0.000000D+00  E= 2.272429D+00  Symmetry=a

 Vector   17  Occ=0.000000D+00  E= 2.272429D+00  Symmetry=a

 Vector   18  Occ=0.000000D+00  E= 2.280445D+00  Symmetry=a

         Total SCF energy =    -99.943069098885

 Vector    2  Occ=2.000000D+00  E=-1.532214D+00

 Vector    3  Occ=2.000000D+00  E=-6.406264D-01

 Vector    4  Occ=2.000000D+00  E=-6.367773D-01

 Vector    5  Occ=2.000000D+00  E=-6.367773D-01

 Vector    6  Occ=0.000000D+00  E=-6.281452D-02

 Vector    7  Occ=0.000000D+00  E=-6.829444D-03

 Vector    8  Occ=0.000000D+00  E=-3.454294D-03

 Vector    9  Occ=0.000000D+00  E= 3.752138D-01

 Vector   10  Occ=0.000000D+00  E= 7.474993D-01

 Vector   11  Occ=0.000000D+00  E= 7.474993D-01

 Vector   12  Occ=0.000000D+00  E= 1.021262D+00

 Vector   13  Occ=0.000000D+00  E= 1.022889D+00

 Vector   14  Occ=0.000000D+00  E= 1.022889D+00

 Vector   15  Occ=0.000000D+00  E= 1.700168D+00

       Multipole analysis of the density wrt the origin
       ------------------------------------------------

     L   x y z        total         open         nuclear
     -   - - -        -----         ----         -------
     0   0 0 0     -0.000000      0.000000     10.000000

     1   1 0 0      0.000000      0.000000      0.000000
     1   0 1 0      0.864817      0.000000     -0.000000
     1   0 0 1      0.000000      0.000000      0.000000

     2   2 0 0     -4.370055      0.000000      0.000000
     2   1 1 0      0.000000      0.000000      0.000000
     2   1 0 1      0.000000      0.000000      0.000000
     2   0 2 0     -1.724951      0.000000      5.957196
     2   0 1 1      0.000000      0.000000      0.000000

 CCSD total energy / hartree       =      -100.022354884019919
 Total times  cpu:      162.2s     wall:      227.5s
