============================== echo of input deck ==============================
 echo
 start HF
 title "HF"

 memory total 24 gb

 geometry units bohr
 symmetry c1
        F  0.00000000  0.00000000  0.00000000
        H  0.00000000  2.6334  0.00000000
 end

 basis spherical
   * library cc-pVTZ
 end

 mcscf
   active  8
   actelec 10
   multiplicity 1
   maxiter 40
   vectors input HF.mos
   vectors output HF.mos
 end

 task mcscf

 scf
   vectors input HF.mos
   vectors output HF-trash.mos
   noscf
 end

 tce
   2eorb
   2emet 13
   ccsd
   maxiter 500
 end

 set tce:print_integrals T
 set tce:qorb 8
 set tce:qela 5
 set tce:qelb 5

# set tce:qducc T
# set tce:nactv 3
# set tce:nonhf T
# set tce:ducc_model 3

 set tce:printtol 0.02

 task tce
================================================================================

 Output coordinates in a.u. (scale by  1.000000000 to convert to a.u.)

  No.       Tag          Charge          X              Y              Z
 ---- ---------------- ---------- -------------- -------------- --------------
    1 F                    9.0000     0.00000000    -0.26334000     0.00000000
    2 H                    1.0000     0.00000000     2.37006000     0.00000000

 Vector    1  Occ=1.999982D+00  E=-2.630874D+01  Symmetry=a

 Vector    2  Occ=1.999194D+00  E=-1.531508D+00  Symmetry=a

 Vector    3  Occ=1.999194D+00  E=-6.380538D-01  Symmetry=a

 Vector    4  Occ=1.994443D+00  E=-6.380537D-01  Symmetry=a

 Vector    5  Occ=1.888075D+00  E=-6.320715D-01  Symmetry=a

 Vector    6  Occ=1.122661D-01  E=-6.701074D-02  Symmetry=a

 Vector    7  Occ=4.527021D-03  E=-6.711096D-03  Symmetry=a

 Vector    8  Occ=2.319002D-03  E=-3.438299D-03  Symmetry=a

 Vector    9  Occ=0.000000D+00  E= 3.754041D-01  Symmetry=a

 Vector   10  Occ=0.000000D+00  E= 7.437737D-01  Symmetry=a

 Vector   11  Occ=0.000000D+00  E= 7.437737D-01  Symmetry=a

 Vector   12  Occ=0.000000D+00  E= 1.010763D+00  Symmetry=a

 Vector   13  Occ=0.000000D+00  E= 1.022160D+00  Symmetry=a

 Vector   14  Occ=0.000000D+00  E= 1.022160D+00  Symmetry=a

 Vector   15  Occ=0.000000D+00  E= 1.687385D+00  Symmetry=a

 Vector   16  Occ=0.000000D+00  E= 2.273360D+00  Symmetry=a

 Vector   17  Occ=0.000000D+00  E= 2.273360D+00  Symmetry=a

 Vector   18  Occ=0.000000D+00  E= 2.273409D+00  Symmetry=a

         Total SCF energy =    -99.933016382693

 Vector    2  Occ=2.000000D+00  E=-1.531508D+00

 Vector    3  Occ=2.000000D+00  E=-6.380538D-01

 Vector    4  Occ=2.000000D+00  E=-6.380537D-01

 Vector    5  Occ=2.000000D+00  E=-6.320715D-01

 Vector    6  Occ=0.000000D+00  E=-6.701074D-02

 Vector    7  Occ=0.000000D+00  E=-6.711096D-03

 Vector    8  Occ=0.000000D+00  E=-3.438299D-03

 Vector    9  Occ=0.000000D+00  E= 3.754041D-01

 Vector   10  Occ=0.000000D+00  E= 7.437737D-01

 Vector   11  Occ=0.000000D+00  E= 7.437737D-01

 Vector   12  Occ=0.000000D+00  E= 1.010763D+00

 Vector   13  Occ=0.000000D+00  E= 1.022160D+00

 Vector   14  Occ=0.000000D+00  E= 1.022160D+00

 Vector   15  Occ=0.000000D+00  E= 1.687385D+00

       Multipole analysis of the density wrt the origin
       ------------------------------------------------

     L   x y z        total         open         nuclear
     -   - - -        -----         ----         -------
     0   0 0 0     -0.000000      0.000000     10.000000

     1   1 0 0      0.000000      0.000000      0.000000
     1   0 1 0      0.861578      0.000000      0.000000
     1   0 0 1      0.000000      0.000000      0.000000

     2   2 0 0     -4.384601      0.000000      0.000000
     2   1 1 0      0.000000      0.000000      0.000000
     2   1 0 1     -0.000000      0.000000      0.000000
     2   0 2 0     -1.677850      0.000000      6.241316
     2   0 1 1      0.000000      0.000000      0.000000

 CCSD total energy / hartree       =      -100.015462226737839
 Total times  cpu:      102.4s     wall:      152.9s
