============================== echo of input deck ==============================
 echo
 start HF
 title "HF"

 memory total 24 gb

 geometry units bohr
 symmetry c1
        F  0.00000000  0.00000000  0.00000000
        H  0.00000000  2.7113625  0.00000000
 end

 basis spherical
   * library cc-pVTZ
 end

 mcscf
   active  8
   actelec 10
   multiplicity 1
   maxiter 40
   vectors input HF.mos
   vectors output HF.mos
 end

 task mcscf

 scf
   vectors input HF.mos
   vectors output HF-trash.mos
   noscf
 end

 tce
   2eorb
   2emet 13
   ccsd
   maxiter 500
 end

 set tce:print_integrals T
 set tce:qorb 8
 set tce:qela 5
 set tce:qelb 5

# set tce:qducc T
# set tce:nactv 3
# set tce:nonhf T
# set tce:ducc_model 3

 set tce:printtol 0.02

 task tce
================================================================================

 Output coordinates in a.u. (scale by  1.000000000 to convert to a.u.)

  No.       Tag          Charge          X              Y              Z
 ---- ---------------- ---------- -------------- -------------- --------------
    1 F                    9.0000     0.00000000    -0.27113625     0.00000000
    2 H                    1.0000     0.00000000     2.44022625     0.00000000

 Vector    1  Occ=1.999982D+00  E=-2.631198D+01  Symmetry=a

 Vector    2  Occ=1.999203D+00  E=-1.531204D+00  Symmetry=a

 Vector    3  Occ=1.999203D+00  E=-6.400607D-01  Symmetry=a

 Vector    4  Occ=1.994480D+00  E=-6.400607D-01  Symmetry=a

 Vector    5  Occ=1.872457D+00  E=-6.213480D-01  Symmetry=a

 Vector    6  Occ=1.279026D-01  E=-7.276870D-02  Symmetry=a

 Vector    7  Occ=4.435192D-03  E=-6.560489D-03  Symmetry=a

 Vector    8  Occ=2.336545D-03  E=-3.417932D-03  Symmetry=a

 Vector    9  Occ=0.000000D+00  E= 3.756986D-01  Symmetry=a

 Vector   10  Occ=0.000000D+00  E= 7.396253D-01  Symmetry=a

 Vector   11  Occ=0.000000D+00  E= 7.396253D-01  Symmetry=a

 Vector   12  Occ=0.000000D+00  E= 9.974133D-01  Symmetry=a

 Vector   13  Occ=0.000000D+00  E= 1.020676D+00  Symmetry=a

 Vector   14  Occ=0.000000D+00  E= 1.020676D+00  Symmetry=a

 Vector   15  Occ=0.000000D+00  E= 1.668613D+00  Symmetry=a

 Vector   16  Occ=0.000000D+00  E= 2.266386D+00  Symmetry=a

 Vector   17  Occ=0.000000D+00  E= 2.266386D+00  Symmetry=a

 Vector   18  Occ=0.000000D+00  E= 2.274014D+00  Symmetry=a

         Total SCF energy =    -99.920209892967

 Vector    2  Occ=2.000000D+00  E=-1.531204D+00

 Vector    3  Occ=2.000000D+00  E=-6.400607D-01

 Vector    4  Occ=2.000000D+00  E=-6.400607D-01

 Vector    5  Occ=2.000000D+00  E=-6.213480D-01

 Vector    6  Occ=0.000000D+00  E=-7.276870D-02

 Vector    7  Occ=0.000000D+00  E=-6.560489D-03

 Vector    8  Occ=0.000000D+00  E=-3.417932D-03

 Vector    9  Occ=0.000000D+00  E= 3.756986D-01

 Vector   10  Occ=0.000000D+00  E= 7.396253D-01

 Vector   11  Occ=0.000000D+00  E= 7.396253D-01

 Vector   12  Occ=0.000000D+00  E= 9.974133D-01

 Vector   13  Occ=0.000000D+00  E= 1.020676D+00

 Vector   14  Occ=0.000000D+00  E= 1.020676D+00

 Vector   15  Occ=0.000000D+00  E= 1.668613D+00

       Multipole analysis of the density wrt the origin
       ------------------------------------------------

     L   x y z        total         open         nuclear
     -   - - -        -----         ----         -------
     0   0 0 0     -0.000000      0.000000     10.000000

     1   1 0 0      0.000000      0.000000      0.000000
     1   0 1 0      0.854596      0.000000      0.000000
     1   0 0 1      0.000000      0.000000      0.000000

     2   2 0 0     -4.402671      0.000000      0.000000
     2   1 1 0      0.000000      0.000000      0.000000
     2   1 0 1      0.000000      0.000000      0.000000
     2   0 2 0     -1.624256      0.000000      6.616338
     2   0 1 1      0.000000      0.000000      0.000000

 CCSD total energy / hartree       =      -100.006957766775670
 Total times  cpu:       98.5s     wall:      145.8s
