============================== echo of input deck ==============================
 echo
 start HF
 title "HF"

 memory total 24 gb

 geometry units bohr
 symmetry c1
        F  0.00000000  0.00000000  0.00000000
        H  0.00000000  2.720025  0.00000000
 end

 basis spherical
   * library cc-pVTZ
 end

 mcscf
   active  8
   actelec 10
   multiplicity 1
   maxiter 40
   vectors input HF.mos
   vectors output HF.mos
 end

 task mcscf

 scf
   vectors input HF.mos
   vectors output HF-trash.mos
   noscf
 end

 tce
   2eorb
   2emet 13
   ccsd
   maxiter 500
 end

 set tce:print_integrals T
 set tce:qorb 8
 set tce:qela 5
 set tce:qelb 5

# set tce:qducc T
# set tce:nactv 3
# set tce:nonhf T
# set tce:ducc_model 3

 set tce:printtol 0.02

 task tce
================================================================================

 Output coordinates in a.u. (scale by  1.000000000 to convert to a.u.)

  No.       Tag          Charge          X              Y              Z
 ---- ---------------- ---------- -------------- -------------- --------------
    1 F                    9.0000     0.00000000    -0.27200250     0.00000000
    2 H                    1.0000     0.00000000     2.44802250     0.00000000

 Vector    1  Occ=1.999982D+00  E=-2.631236D+01  Symmetry=a

 Vector    2  Occ=1.999204D+00  E=-1.531210D+00  Symmetry=a

 Vector    3  Occ=1.999204D+00  E=-6.403075D-01  Symmetry=a

 Vector    4  Occ=1.994485D+00  E=-6.403075D-01  Symmetry=a

 Vector    5  Occ=1.870620D+00  E=-6.201745D-01  Symmetry=a

 Vector    6  Occ=1.297418D-01  E=-7.343359D-02  Symmetry=a

 Vector    7  Occ=4.424715D-03  E=-6.543897D-03  Symmetry=a

 Vector    8  Occ=2.338165D-03  E=-3.415671D-03  Symmetry=a

 Vector    9  Occ=0.000000D+00  E= 3.757357D-01  Symmetry=a

 Vector   10  Occ=0.000000D+00  E= 7.392078D-01  Symmetry=a

 Vector   11  Occ=0.000000D+00  E= 7.392078D-01  Symmetry=a

 Vector   12  Occ=0.000000D+00  E= 9.959339D-01  Symmetry=a

 Vector   13  Occ=0.000000D+00  E= 1.020475D+00  Symmetry=a

 Vector   14  Occ=0.000000D+00  E= 1.020475D+00  Symmetry=a

 Vector   15  Occ=0.000000D+00  E= 1.666384D+00  Symmetry=a

 Vector   16  Occ=0.000000D+00  E= 2.265744D+00  Symmetry=a

 Vector   17  Occ=0.000000D+00  E= 2.265744D+00  Symmetry=a

 Vector   18  Occ=0.000000D+00  E= 2.274038D+00  Symmetry=a

         Total SCF energy =    -99.918796657255

 Vector    2  Occ=2.000000D+00  E=-1.531210D+00

 Vector    3  Occ=2.000000D+00  E=-6.403075D-01

 Vector    4  Occ=2.000000D+00  E=-6.403075D-01

 Vector    5  Occ=2.000000D+00  E=-6.201745D-01

 Vector    6  Occ=0.000000D+00  E=-7.343359D-02

 Vector    7  Occ=0.000000D+00  E=-6.543897D-03

 Vector    8  Occ=0.000000D+00  E=-3.415671D-03

 Vector    9  Occ=0.000000D+00  E= 3.757357D-01

 Vector   10  Occ=0.000000D+00  E= 7.392078D-01

 Vector   11  Occ=0.000000D+00  E= 7.392078D-01

 Vector   12  Occ=0.000000D+00  E= 9.959339D-01

 Vector   13  Occ=0.000000D+00  E= 1.020475D+00

 Vector   14  Occ=0.000000D+00  E= 1.020475D+00

 Vector   15  Occ=0.000000D+00  E= 1.666384D+00

       Multipole analysis of the density wrt the origin
       ------------------------------------------------

     L   x y z        total         open         nuclear
     -   - - -        -----         ----         -------
     0   0 0 0     -0.000000      0.000000     10.000000

     1   1 0 0      0.000000      0.000000      0.000000
     1   0 1 0      0.853628      0.000000      0.000000
     1   0 0 1      0.000000      0.000000      0.000000

     2   2 0 0     -4.404634      0.000000      0.000000
     2   1 1 0      0.000000      0.000000      0.000000
     2   1 0 1      0.000000      0.000000      0.000000
     2   0 2 0     -1.618809      0.000000      6.658682
     2   0 1 1      0.000000      0.000000      0.000000

 CCSD total energy / hartree       =      -100.006039339241838
 Total times  cpu:       96.8s     wall:      143.9s
