============================== echo of input deck ==============================
 echo
 start HF
 title "HF"

 memory total 24 gb

 geometry units bohr
 symmetry c1
        F  0.00000000  0.00000000  0.00000000
        H  0.00000000  2.8672875  0.00000000
 end

 basis spherical
   * library cc-pVTZ
 end

 mcscf
   active  8
   actelec 10
   multiplicity 1
   maxiter 40
   vectors input HF.mos
   vectors output HF.mos
 end

 task mcscf

 scf
   vectors input HF.mos
   vectors output HF-trash.mos
   noscf
 end

 tce
   2eorb
   2emet 13
   ccsd
   maxiter 500
 end

 set tce:print_integrals T
 set tce:qorb 8
 set tce:qela 5
 set tce:qelb 5

# set tce:qducc T
# set tce:nactv 3
# set tce:nonhf T
# set tce:ducc_model 3

 set tce:printtol 0.02

 task tce
================================================================================

 Output coordinates in a.u. (scale by  1.000000000 to convert to a.u.)

  No.       Tag          Charge          X              Y              Z
 ---- ---------------- ---------- -------------- -------------- --------------
    1 F                    9.0000     0.00000000    -0.28672875     0.00000000
    2 H                    1.0000     0.00000000     2.58055875     0.00000000

 Vector    1  Occ=1.999983D+00  E=-2.631911D+01  Symmetry=a

 Vector    2  Occ=1.999227D+00  E=-1.532350D+00  Symmetry=a

 Vector    3  Occ=1.999227D+00  E=-6.451441D-01  Symmetry=a

 Vector    4  Occ=1.994590D+00  E=-6.451441D-01  Symmetry=a

 Vector    5  Occ=1.836192D+00  E=-6.007259D-01  Symmetry=a

 Vector    6  Occ=1.641857D-01  E=-8.548432D-02  Symmetry=a

 Vector    7  Occ=4.241803D-03  E=-6.268423D-03  Symmetry=a

 Vector    8  Occ=2.354082D-03  E=-3.377242D-03  Symmetry=a

 Vector    9  Occ=0.000000D+00  E= 3.764832D-01  Symmetry=a

 Vector   10  Occ=0.000000D+00  E= 7.333843D-01  Symmetry=a

 Vector   11  Occ=0.000000D+00  E= 7.333843D-01  Symmetry=a

 Vector   12  Occ=0.000000D+00  E= 9.707472D-01  Symmetry=a

 Vector   13  Occ=0.000000D+00  E= 1.016040D+00  Symmetry=a

 Vector   14  Occ=0.000000D+00  E= 1.016040D+00  Symmetry=a

 Vector   15  Occ=0.000000D+00  E= 1.625526D+00  Symmetry=a

 Vector   16  Occ=0.000000D+00  E= 2.258090D+00  Symmetry=a

 Vector   17  Occ=0.000000D+00  E= 2.258090D+00  Symmetry=a

 Vector   18  Occ=0.000000D+00  E= 2.273235D+00  Symmetry=a

         Total SCF energy =    -99.895123929059

 Vector    2  Occ=2.000000D+00  E=-1.532350D+00

 Vector    3  Occ=2.000000D+00  E=-6.451441D-01

 Vector    4  Occ=2.000000D+00  E=-6.451441D-01

 Vector    5  Occ=2.000000D+00  E=-6.007259D-01

 Vector    6  Occ=0.000000D+00  E=-8.548432D-02

 Vector    7  Occ=0.000000D+00  E=-6.268423D-03

 Vector    8  Occ=0.000000D+00  E=-3.377242D-03

 Vector    9  Occ=0.000000D+00  E= 3.764832D-01

 Vector   10  Occ=0.000000D+00  E= 7.333843D-01

 Vector   11  Occ=0.000000D+00  E= 7.333843D-01

 Vector   12  Occ=0.000000D+00  E= 9.707472D-01

 Vector   13  Occ=0.000000D+00  E= 1.016040D+00

 Vector   14  Occ=0.000000D+00  E= 1.016040D+00

 Vector   15  Occ=0.000000D+00  E= 1.625526D+00

       Multipole analysis of the density wrt the origin
       ------------------------------------------------

     L   x y z        total         open         nuclear
     -   - - -        -----         ----         -------
     0   0 0 0     -0.000000      0.000000     10.000000

     1   1 0 0      0.000000      0.000000      0.000000
     1   0 1 0      0.831563      0.000000      0.000000
     1   0 0 1      0.000000      0.000000      0.000000

     2   2 0 0     -4.436656      0.000000      0.000000
     2   1 1 0      0.000000      0.000000      0.000000
     2   1 0 1      0.000000      0.000000      0.000000
     2   0 2 0     -1.542622      0.000000      7.399204
     2   0 1 1      0.000000      0.000000      0.000000

 CCSD total energy / hartree       =       -99.991295156587071
 Total times  cpu:       95.0s     wall:      140.6s
