============================== echo of input deck ==============================
 echo
 start HF
 title "HF"

 memory total 24 gb

 geometry units bohr
 symmetry c1
        F  0.00000000  0.00000000  0.00000000
        H  0.00000000  2.772  0.00000000
 end

 basis spherical
   * library cc-pVTZ
 end

 mcscf
   active  8
   actelec 10
   multiplicity 1
   maxiter 40
   vectors input HF.mos
   vectors output HF.mos
 end

 task mcscf

 scf
   vectors input HF.mos
   vectors output HF-trash.mos
   noscf
 end

 tce
   2eorb
   2emet 13
   ccsd
   maxiter 500
 end

 set tce:print_integrals T
 set tce:qorb 8
 set tce:qela 5
 set tce:qelb 5

# set tce:qducc T
# set tce:nactv 3
# set tce:nonhf T
# set tce:ducc_model 3

 set tce:printtol 0.02

 task tce
================================================================================

 Output coordinates in a.u. (scale by  1.000000000 to convert to a.u.)

  No.       Tag          Charge          X              Y              Z
 ---- ---------------- ---------- -------------- -------------- --------------
    1 F                    9.0000     0.00000000    -0.27720000     0.00000000
    2 H                    1.0000     0.00000000     2.49480000     0.00000000

 Vector    1  Occ=1.999983D+00  E=-2.631467D+01  Symmetry=a

 Vector    2  Occ=1.999211D+00  E=-1.531394D+00  Symmetry=a

 Vector    3  Occ=1.999211D+00  E=-6.418823D-01  Symmetry=a

 Vector    4  Occ=1.994518D+00  E=-6.418823D-01  Symmetry=a

 Vector    5  Occ=1.859160D+00  E=-6.132057D-01  Symmetry=a

 Vector    6  Occ=1.412102D-01  E=-7.752715D-02  Symmetry=a

 Vector    7  Occ=4.361020D-03  E=-6.445030D-03  Symmetry=a

 Vector    8  Occ=2.346338D-03  E=-3.402085D-03  Symmetry=a

 Vector    9  Occ=0.000000D+00  E= 3.759812D-01  Symmetry=a

 Vector   10  Occ=0.000000D+00  E= 7.368804D-01  Symmetry=a

 Vector   11  Occ=0.000000D+00  E= 7.368804D-01  Symmetry=a

 Vector   12  Occ=0.000000D+00  E= 9.870439D-01  Symmetry=a

 Vector   13  Occ=0.000000D+00  E= 1.019123D+00  Symmetry=a

 Vector   14  Occ=0.000000D+00  E= 1.019123D+00  Symmetry=a

 Vector   15  Occ=0.000000D+00  E= 1.652425D+00  Symmetry=a

 Vector   16  Occ=0.000000D+00  E= 2.262388D+00  Symmetry=a

 Vector   17  Occ=0.000000D+00  E= 2.262388D+00  Symmetry=a

 Vector   18  Occ=0.000000D+00  E= 2.274006D+00  Symmetry=a

         Total SCF energy =    -99.910362870218

 Vector    2  Occ=2.000000D+00  E=-1.531394D+00

 Vector    3  Occ=2.000000D+00  E=-6.418823D-01

 Vector    4  Occ=2.000000D+00  E=-6.418823D-01

 Vector    5  Occ=2.000000D+00  E=-6.132057D-01

 Vector    6  Occ=0.000000D+00  E=-7.752715D-02

 Vector    7  Occ=0.000000D+00  E=-6.445030D-03

 Vector    8  Occ=0.000000D+00  E=-3.402085D-03

 Vector    9  Occ=0.000000D+00  E= 3.759812D-01

 Vector   10  Occ=0.000000D+00  E= 7.368804D-01

 Vector   11  Occ=0.000000D+00  E= 7.368804D-01

 Vector   12  Occ=0.000000D+00  E= 9.870439D-01

 Vector   13  Occ=0.000000D+00  E= 1.019123D+00

 Vector   14  Occ=0.000000D+00  E= 1.019123D+00

 Vector   15  Occ=0.000000D+00  E= 1.652425D+00

       Multipole analysis of the density wrt the origin
       ------------------------------------------------

     L   x y z        total         open         nuclear
     -   - - -        -----         ----         -------
     0   0 0 0     -0.000000      0.000000     10.000000

     1   1 0 0      0.000000      0.000000      0.000000
     1   0 1 0      0.847033      0.000000      0.000000
     1   0 0 1      0.000000      0.000000      0.000000

     2   2 0 0     -4.416230      0.000000      0.000000
     2   1 1 0      0.000000      0.000000      0.000000
     2   1 0 1      0.000000      0.000000      0.000000
     2   0 2 0     -1.588332      0.000000      6.915586
     2   0 1 1      0.000000      0.000000      0.000000

 CCSD total energy / hartree       =      -100.000645403592500
 Total times  cpu:       97.1s     wall:      143.9s
