============================== echo of input deck ==============================
 echo
 start HF
 title "HF"

 memory total 24 gb

 geometry units bohr
 symmetry c1
        F  0.00000000  0.00000000  0.00000000
        H  0.00000000  3.0751875  0.00000000
 end

 basis spherical
   * library cc-pVTZ
 end

 mcscf
   active  8
   actelec 10
   multiplicity 1
   maxiter 40
   vectors input HF.mos
   vectors output HF.mos
 end

 task mcscf

 scf
   vectors input HF.mos
   vectors output HF-trash.mos
   noscf
 end

 tce
   2eorb
   2emet 13
   ccsd
   maxiter 500
 end

 set tce:print_integrals T
 set tce:qorb 8
 set tce:qela 5
 set tce:qelb 5

# set tce:qducc T
# set tce:nactv 3
# set tce:nonhf T
# set tce:ducc_model 3

 set tce:printtol 0.02

 task tce
================================================================================

 Output coordinates in a.u. (scale by  1.000000000 to convert to a.u.)

  No.       Tag          Charge          X              Y              Z
 ---- ---------------- ---------- -------------- -------------- --------------
    1 F                    9.0000     0.00000000    -0.30751875     0.00000000
    2 H                    1.0000     0.00000000     2.76766875     0.00000000

 Vector    1  Occ=1.999983D+00  E=-2.632941D+01  Symmetry=a

 Vector    2  Occ=1.999272D+00  E=-1.536599D+00  Symmetry=a

 Vector    3  Occ=1.999272D+00  E=-6.534974D-01  Symmetry=a

 Vector    4  Occ=1.994789D+00  E=-6.534970D-01  Symmetry=a

 Vector    5  Occ=1.777484D+00  E=-5.746927D-01  Symmetry=a

 Vector    6  Occ=2.228790D-01  E=-1.046474D-01  Symmetry=a

 Vector    7  Occ=3.989260D-03  E=-5.910913D-03  Symmetry=a

 Vector    8  Occ=2.331527D-03  E=-3.322810D-03  Symmetry=a

 Vector    9  Occ=0.000000D+00  E= 3.779351D-01  Symmetry=a

 Vector   10  Occ=0.000000D+00  E= 7.289866D-01  Symmetry=a

 Vector   11  Occ=0.000000D+00  E= 7.289866D-01  Symmetry=a

 Vector   12  Occ=0.000000D+00  E= 9.341372D-01  Symmetry=a

 Vector   13  Occ=0.000000D+00  E= 1.007049D+00  Symmetry=a

 Vector   14  Occ=0.000000D+00  E= 1.007049D+00  Symmetry=a

 Vector   15  Occ=0.000000D+00  E= 1.563795D+00  Symmetry=a

 Vector   16  Occ=0.000000D+00  E= 2.253601D+00  Symmetry=a

 Vector   17  Occ=0.000000D+00  E= 2.253601D+00  Symmetry=a

 Vector   18  Occ=0.000000D+00  E= 2.269017D+00  Symmetry=a

         Total SCF energy =    -99.863029153273

 Vector    2  Occ=2.000000D+00  E=-1.536599D+00

 Vector    3  Occ=2.000000D+00  E=-6.534974D-01

 Vector    4  Occ=2.000000D+00  E=-6.534970D-01

 Vector    5  Occ=2.000000D+00  E=-5.746927D-01

 Vector    6  Occ=0.000000D+00  E=-1.046474D-01

 Vector    7  Occ=0.000000D+00  E=-5.910913D-03

 Vector    8  Occ=0.000000D+00  E=-3.322810D-03

 Vector    9  Occ=0.000000D+00  E= 3.779351D-01

 Vector   10  Occ=0.000000D+00  E= 7.289866D-01

 Vector   11  Occ=0.000000D+00  E= 7.289866D-01

 Vector   12  Occ=0.000000D+00  E= 9.341372D-01

 Vector   13  Occ=0.000000D+00  E= 1.007049D+00

 Vector   14  Occ=0.000000D+00  E= 1.007049D+00

 Vector   15  Occ=0.000000D+00  E= 1.563795D+00

       Multipole analysis of the density wrt the origin
       ------------------------------------------------

     L   x y z        total         open         nuclear
     -   - - -        -----         ----         -------
     0   0 0 0     -0.000000      0.000000     10.000000

     1   1 0 0      0.000000      0.000000      0.000000
     1   0 1 0      0.784356      0.000000      0.000000
     1   0 0 1      0.000000      0.000000      0.000000

     2   2 0 0     -4.477340      0.000000      0.000000
     2   1 1 0      0.000000      0.000000      0.000000
     2   1 0 1      0.000000      0.000000      0.000000
     2   0 2 0     -1.490013      0.000000      8.511100
     2   0 1 1      0.000000      0.000000      0.000000

 CCSD total energy / hartree       =       -99.973421309559427
 Total times  cpu:      106.2s     wall:      157.2s
