============================== echo of input deck ==============================
 echo
 start HF
 title "HF"

 memory total 24 gb

 geometry units bohr
 symmetry c1
        F  0.00000000  0.00000000  0.00000000
        H  0.00000000  3.0925125  0.00000000
 end

 basis spherical
   * library cc-pVTZ
 end

 mcscf
   active  8
   actelec 10
   multiplicity 1
   maxiter 40
   vectors input HF.mos
   vectors output HF.mos
 end

 task mcscf

 scf
   vectors input HF.mos
   vectors output HF-trash.mos
   noscf
 end

 tce
   2eorb
   2emet 13
   ccsd
   maxiter 500
 end

 set tce:print_integrals T
 set tce:qorb 8
 set tce:qela 5
 set tce:qelb 5

# set tce:qducc T
# set tce:nactv 3
# set tce:nonhf T
# set tce:ducc_model 3

 set tce:printtol 0.02

 task tce
================================================================================

 Output coordinates in a.u. (scale by  1.000000000 to convert to a.u.)

  No.       Tag          Charge          X              Y              Z
 ---- ---------------- ---------- -------------- -------------- --------------
    1 F                    9.0000     0.00000000    -0.30925125     0.00000000
    2 H                    1.0000     0.00000000     2.78326125     0.00000000

 Vector    1  Occ=1.999983D+00  E=-2.633028D+01  Symmetry=a

 Vector    2  Occ=1.999276D+00  E=-1.537053D+00  Symmetry=a

 Vector    3  Occ=1.999276D+00  E=-6.542431D-01  Symmetry=a

 Vector    4  Occ=1.994807D+00  E=-6.542426D-01  Symmetry=a

 Vector    5  Occ=1.772092D+00  E=-5.725927D-01  Symmetry=a

 Vector    6  Occ=2.282690D-01  E=-1.063374D-01  Symmetry=a

 Vector    7  Occ=3.969650D-03  E=-5.883284D-03  Symmetry=a

 Vector    8  Occ=2.326914D-03  E=-3.318276D-03  Symmetry=a

 Vector    9  Occ=0.000000D+00  E= 3.780796D-01  Symmetry=a

 Vector   10  Occ=0.000000D+00  E= 7.288060D-01  Symmetry=a

 Vector   11  Occ=0.000000D+00  E= 7.288060D-01  Symmetry=a

 Vector   12  Occ=0.000000D+00  E= 9.309833D-01  Symmetry=a

 Vector   13  Occ=0.000000D+00  E= 1.006187D+00  Symmetry=a

 Vector   14  Occ=0.000000D+00  E= 1.006187D+00  Symmetry=a

 Vector   15  Occ=0.000000D+00  E= 1.558695D+00  Symmetry=a

 Vector   16  Occ=0.000000D+00  E= 2.253361D+00  Symmetry=a

 Vector   17  Occ=0.000000D+00  E= 2.253362D+00  Symmetry=a

 Vector   18  Occ=0.000000D+00  E= 2.268548D+00  Symmetry=a

         Total SCF energy =    -99.860432379897

 Vector    2  Occ=2.000000D+00  E=-1.537053D+00

 Vector    3  Occ=2.000000D+00  E=-6.542431D-01

 Vector    4  Occ=2.000000D+00  E=-6.542426D-01

 Vector    5  Occ=2.000000D+00  E=-5.725927D-01

 Vector    6  Occ=0.000000D+00  E=-1.063374D-01

 Vector    7  Occ=0.000000D+00  E=-5.883284D-03

 Vector    8  Occ=0.000000D+00  E=-3.318276D-03

 Vector    9  Occ=0.000000D+00  E= 3.780796D-01

 Vector   10  Occ=0.000000D+00  E= 7.288060D-01

 Vector   11  Occ=0.000000D+00  E= 7.288060D-01

 Vector   12  Occ=0.000000D+00  E= 9.309833D-01

 Vector   13  Occ=0.000000D+00  E= 1.006187D+00

 Vector   14  Occ=0.000000D+00  E= 1.006187D+00

 Vector   15  Occ=0.000000D+00  E= 1.558695D+00

       Multipole analysis of the density wrt the origin
       ------------------------------------------------

     L   x y z        total         open         nuclear
     -   - - -        -----         ----         -------
     0   0 0 0     -0.000000      0.000000     10.000000

     1   1 0 0      0.000000      0.000000      0.000000
     1   0 1 0      0.779705      0.000000     -0.000000
     1   0 0 1      0.000000      0.000000      0.000000

     2   2 0 0     -4.480482      0.000000      0.000000
     2   1 1 0      0.000000      0.000000      0.000000
     2   1 0 1      0.000000      0.000000      0.000000
     2   0 2 0     -1.488547      0.000000      8.607270
     2   0 1 1      0.000000      0.000000      0.000000

 CCSD total energy / hartree       =       -99.972089768412715
 Total times  cpu:      109.7s     wall:      163.2s
