============================== echo of input deck ==============================
 echo
 start HF
 title "HF"

 memory total 24 gb

 geometry units bohr
 symmetry c1
        F  0.00000000  0.00000000  0.00000000
        H  0.00000000  3.1878  0.00000000
 end

 basis spherical
   * library cc-pVTZ
 end

 mcscf
   active  8
   actelec 10
   multiplicity 1
   maxiter 40
   vectors input HF.mos
   vectors output HF.mos
 end

 task mcscf

 scf
   vectors input HF.mos
   vectors output HF-trash.mos
   noscf
 end

 tce
   2eorb
   2emet 13
   ccsd
   maxiter 500
 end

 set tce:print_integrals T
 set tce:qorb 8
 set tce:qela 5
 set tce:qelb 5

# set tce:qducc T
# set tce:nactv 3
# set tce:nonhf T
# set tce:ducc_model 3

 set tce:printtol 0.02

 task tce
================================================================================

 Output coordinates in a.u. (scale by  1.000000000 to convert to a.u.)

  No.       Tag          Charge          X              Y              Z
 ---- ---------------- ---------- -------------- -------------- --------------
    1 F                    9.0000     0.00000000    -0.31878000     0.00000000
    2 H                    1.0000     0.00000000     2.86902000     0.00000000

 Vector    1  Occ=1.999983D+00  E=-2.633505D+01  Symmetry=a

 Vector    2  Occ=1.999301D+00  E=-1.539732D+00  Symmetry=a

 Vector    3  Occ=1.999300D+00  E=-6.584062D-01  Symmetry=a

 Vector    4  Occ=1.994913D+00  E=-6.584032D-01  Symmetry=a

 Vector    5  Occ=1.741208D+00  E=-5.612332D-01  Symmetry=a

 Vector    6  Occ=2.591334D-01  E=-1.158223D-01  Symmetry=a

 Vector    7  Occ=3.868102D-03  E=-5.738126D-03  Symmetry=a

 Vector    8  Occ=2.293557D-03  E=-3.293393D-03  Symmetry=a

 Vector    9  Occ=0.000000D+00  E= 3.789458D-01  Symmetry=a

 Vector   10  Occ=0.000000D+00  E= 7.282817D-01  Symmetry=a

 Vector   11  Occ=0.000000D+00  E= 7.282818D-01  Symmetry=a

 Vector   12  Occ=0.000000D+00  E= 9.132708D-01  Symmetry=a

 Vector   13  Occ=0.000000D+00  E= 1.001209D+00  Symmetry=a

 Vector   14  Occ=0.000000D+00  E= 1.001209D+00  Symmetry=a

 Vector   15  Occ=0.000000D+00  E= 1.531170D+00  Symmetry=a

 Vector   16  Occ=0.000000D+00  E= 2.252067D+00  Symmetry=a

 Vector   17  Occ=0.000000D+00  E= 2.252067D+00  Symmetry=a

 Vector   18  Occ=0.000000D+00  E= 2.265756D+00  Symmetry=a

         Total SCF energy =    -99.846376947047

 Vector    2  Occ=2.000000D+00  E=-1.539732D+00

 Vector    3  Occ=2.000000D+00  E=-6.584062D-01

 Vector    4  Occ=2.000000D+00  E=-6.584032D-01

 Vector    5  Occ=2.000000D+00  E=-5.612332D-01

 Vector    6  Occ=0.000000D+00  E=-1.158223D-01

 Vector    7  Occ=0.000000D+00  E=-5.738126D-03

 Vector    8  Occ=0.000000D+00  E=-3.293393D-03

 Vector    9  Occ=0.000000D+00  E= 3.789458D-01

 Vector   10  Occ=0.000000D+00  E= 7.282817D-01

 Vector   11  Occ=0.000000D+00  E= 7.282818D-01

 Vector   12  Occ=0.000000D+00  E= 9.132708D-01

 Vector   13  Occ=0.000000D+00  E= 1.001209D+00

 Vector   14  Occ=0.000000D+00  E= 1.001209D+00

 Vector   15  Occ=0.000000D+00  E= 1.531170D+00

       Multipole analysis of the density wrt the origin
       ------------------------------------------------

     L   x y z        total         open         nuclear
     -   - - -        -----         ----         -------
     0   0 0 0     -0.000000      0.000000     10.000000

     1   1 0 0      0.000000      0.000000      0.000000
     1   0 1 0      0.752502      0.000000     -0.000000
     1   0 0 1      0.000000      0.000000      0.000000

     2   2 0 0     -4.497054      0.000000      0.000000
     2   1 1 0      0.000000      0.000000      0.000000
     2   1 0 1      0.000000      0.000000      0.000000
     2   0 2 0     -1.488252      0.000000      9.145862
     2   0 1 1      0.000000      0.000000      0.000000

 CCSD total energy / hartree       =       -99.965193534287806
 Total times  cpu:      107.0s     wall:      158.6s
