============================== echo of input deck ==============================
 echo
 start HF
 title "HF"

 memory total 24 gb

 geometry units bohr
 symmetry c1
        F  0.00000000  0.00000000  0.00000000
        H  0.00000000  3.2311125  0.00000000
 end

 basis spherical
   * library cc-pVTZ
 end

 mcscf
   active  8
   actelec 10
   multiplicity 1
   maxiter 40
   vectors input HF.mos
   vectors output HF.mos
 end

 task mcscf

 scf
   vectors input HF.mos
   vectors output HF-trash.mos
   noscf
 end

 tce
   2eorb
   2emet 13
   ccsd
   maxiter 500
 end

 set tce:print_integrals T
 set tce:qorb 8
 set tce:qela 5
 set tce:qelb 5

# set tce:qducc T
# set tce:nactv 3
# set tce:nonhf T
# set tce:ducc_model 3

 set tce:printtol 0.02

 task tce
================================================================================

 Output coordinates in a.u. (scale by  1.000000000 to convert to a.u.)

  No.       Tag          Charge          X              Y              Z
 ---- ---------------- ---------- -------------- -------------- --------------
    1 F                    9.0000     0.00000000    -0.32311125     0.00000000
    2 H                    1.0000     0.00000000     2.90800125     0.00000000

 Vector    1  Occ=1.999982D+00  E=-2.633719D+01  Symmetry=a

 Vector    2  Occ=1.999314D+00  E=-1.541029D+00  Symmetry=a

 Vector    3  Occ=1.999311D+00  E=-6.603154D-01  Symmetry=a

 Vector    4  Occ=1.994962D+00  E=-6.603069D-01  Symmetry=a

 Vector    5  Occ=1.726540D+00  E=-5.561786D-01  Symmetry=a

 Vector    6  Occ=2.737912D-01  E=-1.202187D-01  Symmetry=a

 Vector    7  Occ=3.825917D-03  E=-5.676112D-03  Symmetry=a

 Vector    8  Occ=2.273957D-03  E=-3.282145D-03  Symmetry=a

 Vector    9  Occ=0.000000D+00  E= 3.793821D-01  Symmetry=a

 Vector   10  Occ=0.000000D+00  E= 7.282927D-01  Symmetry=a

 Vector   11  Occ=0.000000D+00  E= 7.282929D-01  Symmetry=a

 Vector   12  Occ=0.000000D+00  E= 9.050041D-01  Symmetry=a

 Vector   13  Occ=0.000000D+00  E= 9.988347D-01  Symmetry=a

 Vector   14  Occ=0.000000D+00  E= 9.988354D-01  Symmetry=a

 Vector   15  Occ=0.000000D+00  E= 1.519055D+00  Symmetry=a

 Vector   16  Occ=0.000000D+00  E= 2.251430D+00  Symmetry=a

 Vector   17  Occ=0.000000D+00  E= 2.251431D+00  Symmetry=a

 Vector   18  Occ=0.000000D+00  E= 2.264394D+00  Symmetry=a

         Total SCF energy =    -99.840117691753

 Vector    2  Occ=2.000000D+00  E=-1.541029D+00

 Vector    3  Occ=2.000000D+00  E=-6.603154D-01

 Vector    4  Occ=2.000000D+00  E=-6.603069D-01

 Vector    5  Occ=2.000000D+00  E=-5.561786D-01

 Vector    6  Occ=0.000000D+00  E=-1.202187D-01

 Vector    7  Occ=0.000000D+00  E=-5.676112D-03

 Vector    8  Occ=0.000000D+00  E=-3.282145D-03

 Vector    9  Occ=0.000000D+00  E= 3.793821D-01

 Vector   10  Occ=0.000000D+00  E= 7.282927D-01

 Vector   11  Occ=0.000000D+00  E= 7.282929D-01

 Vector   12  Occ=0.000000D+00  E= 9.050041D-01

 Vector   13  Occ=0.000000D+00  E= 9.988347D-01

 Vector   14  Occ=0.000000D+00  E= 9.988354D-01

 Vector   15  Occ=0.000000D+00  E= 1.519055D+00

       Multipole analysis of the density wrt the origin
       ------------------------------------------------

     L   x y z        total         open         nuclear
     -   - - -        -----         ----         -------
     0   0 0 0     -0.000000      0.000000     10.000000

     1   1 0 0      0.000000      0.000000      0.000000
     1   0 1 0      0.739328      0.000000      0.000000
     1   0 0 1      0.000000      0.000000      0.000000

     2   2 0 0     -4.504186      0.000000      0.000000
     2   1 1 0      0.000000      0.000000      0.000000
     2   1 0 1      0.000000      0.000000      0.000000
     2   0 2 0     -1.492374      0.000000      9.396079
     2   0 1 1     -0.000000      0.000000      0.000000

 CCSD total energy / hartree       =       -99.962293713125703
 Total times  cpu:      108.1s     wall:      161.5s
