============================== echo of input deck ==============================
 echo
 start HF
 title "HF"

 memory total 24 gb

 geometry units bohr
 symmetry c1
        F  0.00000000  0.00000000  0.00000000
        H  0.00000000  3.274425  0.00000000
 end

 basis spherical
   * library cc-pVTZ
 end

 mcscf
   active  8
   actelec 10
   multiplicity 1
   maxiter 40
   vectors input HF.mos
   vectors output HF.mos
 end

 task mcscf

 scf
   vectors input HF.mos
   vectors output HF-trash.mos
   noscf
 end

 tce
   2eorb
   2emet 13
   ccsd
   maxiter 500
 end

 set tce:print_integrals T
 set tce:qorb 8
 set tce:qela 5
 set tce:qelb 5

# set tce:qducc T
# set tce:nactv 3
# set tce:nonhf T
# set tce:ducc_model 3

 set tce:printtol 0.02

 task tce
================================================================================

 Output coordinates in a.u. (scale by  1.000000000 to convert to a.u.)

  No.       Tag          Charge          X              Y              Z
 ---- ---------------- ---------- -------------- -------------- --------------
    1 F                    9.0000     0.00000000    -0.32744250     0.00000000
    2 H                    1.0000     0.00000000     2.94698250     0.00000000

 Vector    1  Occ=1.999982D+00  E=-2.633930D+01  Symmetry=a

 Vector    2  Occ=1.999325D+00  E=-1.542360D+00  Symmetry=a

 Vector    3  Occ=1.999325D+00  E=-6.622117D-01  Symmetry=a

 Vector    4  Occ=1.995011D+00  E=-6.622116D-01  Symmetry=a

 Vector    5  Occ=1.711519D+00  E=-5.511944D-01  Symmetry=a

 Vector    6  Occ=2.887992D-01  E=-1.246531D-01  Symmetry=a

 Vector    7  Occ=3.786658D-03  E=-5.617792D-03  Symmetry=a

 Vector    8  Occ=2.251873D-03  E=-3.271001D-03  Symmetry=a

 Vector    9  Occ=0.000000D+00  E= 3.798038D-01  Symmetry=a

 Vector   10  Occ=0.000000D+00  E= 7.284487D-01  Symmetry=a

 Vector   11  Occ=0.000000D+00  E= 7.284487D-01  Symmetry=a

 Vector   12  Occ=0.000000D+00  E= 8.965665D-01  Symmetry=a

 Vector   13  Occ=0.000000D+00  E= 9.964055D-01  Symmetry=a

 Vector   14  Occ=0.000000D+00  E= 9.964055D-01  Symmetry=a

 Vector   15  Occ=0.000000D+00  E= 1.508267D+00  Symmetry=a

 Vector   16  Occ=0.000000D+00  E= 2.250733D+00  Symmetry=a

 Vector   17  Occ=0.000000D+00  E= 2.250733D+00  Symmetry=a

 Vector   18  Occ=0.000000D+00  E= 2.262993D+00  Symmetry=a

         Total SCF energy =    -99.833941610812

 Vector    2  Occ=2.000000D+00  E=-1.542360D+00

 Vector    3  Occ=2.000000D+00  E=-6.622117D-01

 Vector    4  Occ=2.000000D+00  E=-6.622116D-01

 Vector    5  Occ=2.000000D+00  E=-5.511944D-01

 Vector    6  Occ=0.000000D+00  E=-1.246531D-01

 Vector    7  Occ=0.000000D+00  E=-5.617792D-03

 Vector    8  Occ=0.000000D+00  E=-3.271001D-03

 Vector    9  Occ=0.000000D+00  E= 3.798038D-01

 Vector   10  Occ=0.000000D+00  E= 7.284487D-01

 Vector   11  Occ=0.000000D+00  E= 7.284487D-01

 Vector   12  Occ=0.000000D+00  E= 8.965665D-01

 Vector   13  Occ=0.000000D+00  E= 9.964055D-01

 Vector   14  Occ=0.000000D+00  E= 9.964055D-01

 Vector   15  Occ=0.000000D+00  E= 1.508267D+00

       Multipole analysis of the density wrt the origin
       ------------------------------------------------

     L   x y z        total         open         nuclear
     -   - - -        -----         ----         -------
     0   0 0 0     -0.000000      0.000000     10.000000

     1   1 0 0      0.000000      0.000000      0.000000
     1   0 1 0      0.725749      0.000000      0.000000
     1   0 0 1      0.000000      0.000000      0.000000

     2   2 0 0     -4.511079      0.000000      0.000000
     2   1 1 0      0.000000      0.000000      0.000000
     2   1 0 1     -0.000000      0.000000      0.000000
     2   0 2 0     -1.499003      0.000000      9.649673
     2   0 1 1     -0.000000      0.000000      0.000000

 CCSD total energy / hartree       =       -99.959536399001706
 Total times  cpu:      105.0s     wall:      158.5s
