============================== echo of input deck ==============================
 echo
 start HF
 title "HF"

 memory total 24 gb

 geometry units bohr
 symmetry c1
        F  0.00000000  0.00000000  0.00000000
        H  0.00000000  3.3004125  0.00000000
 end

 basis spherical
   * library cc-pVTZ
 end

 mcscf
   active  8
   actelec 10
   multiplicity 1
   maxiter 40
   vectors input HF.mos
   vectors output HF.mos
 end

 task mcscf

 scf
   vectors input HF.mos
   vectors output HF-trash.mos
   noscf
 end

 tce
   2eorb
   2emet 13
   ccsd
   maxiter 500
 end

 set tce:print_integrals T
 set tce:qorb 8
 set tce:qela 5
 set tce:qelb 5

# set tce:qducc T
# set tce:nactv 3
# set tce:nonhf T
# set tce:ducc_model 3

 set tce:printtol 0.02

 task tce
================================================================================

 Output coordinates in a.u. (scale by  1.000000000 to convert to a.u.)

  No.       Tag          Charge          X              Y              Z
 ---- ---------------- ---------- -------------- -------------- --------------
    1 F                    9.0000     0.00000000    -0.33004125     0.00000000
    2 H                    1.0000     0.00000000     2.97037125     0.00000000

 Vector    1  Occ=1.999982D+00  E=-2.634055D+01  Symmetry=a

 Vector    2  Occ=1.999332D+00  E=-1.543169D+00  Symmetry=a

 Vector    3  Occ=1.999332D+00  E=-6.633479D-01  Symmetry=a

 Vector    4  Occ=1.995041D+00  E=-6.633477D-01  Symmetry=a

 Vector    5  Occ=1.702365D+00  E=-5.482401D-01  Symmetry=a

 Vector    6  Occ=2.979462D-01  E=-1.273246D-01  Symmetry=a

 Vector    7  Occ=3.764422D-03  E=-5.582648D-03  Symmetry=a

 Vector    8  Occ=2.237323D-03  E=-3.264339D-03  Symmetry=a

 Vector    9  Occ=0.000000D+00  E= 3.801320D-01  Symmetry=a

 Vector   10  Occ=0.000000D+00  E= 7.286108D-01  Symmetry=a

 Vector   11  Occ=0.000000D+00  E= 7.286108D-01  Symmetry=a

 Vector   12  Occ=0.000000D+00  E= 8.914885D-01  Symmetry=a

 Vector   13  Occ=0.000000D+00  E= 9.949246D-01  Symmetry=a

 Vector   14  Occ=0.000000D+00  E= 9.949246D-01  Symmetry=a

 Vector   15  Occ=0.000000D+00  E= 1.500721D+00  Symmetry=a

 Vector   16  Occ=0.000000D+00  E= 2.250279D+00  Symmetry=a

 Vector   17  Occ=0.000000D+00  E= 2.250279D+00  Symmetry=a

 Vector   18  Occ=0.000000D+00  E= 2.262138D+00  Symmetry=a

         Total SCF energy =    -99.830275887528

 Vector    2  Occ=2.000000D+00  E=-1.543169D+00

 Vector    3  Occ=2.000000D+00  E=-6.633479D-01

 Vector    4  Occ=2.000000D+00  E=-6.633477D-01

 Vector    5  Occ=2.000000D+00  E=-5.482401D-01

 Vector    6  Occ=0.000000D+00  E=-1.273246D-01

 Vector    7  Occ=0.000000D+00  E=-5.582648D-03

 Vector    8  Occ=0.000000D+00  E=-3.264339D-03

 Vector    9  Occ=0.000000D+00  E= 3.801320D-01

 Vector   10  Occ=0.000000D+00  E= 7.286108D-01

 Vector   11  Occ=0.000000D+00  E= 7.286108D-01

 Vector   12  Occ=0.000000D+00  E= 8.914885D-01

 Vector   13  Occ=0.000000D+00  E= 9.949246D-01

 Vector   14  Occ=0.000000D+00  E= 9.949246D-01

 Vector   15  Occ=0.000000D+00  E= 1.500721D+00

       Multipole analysis of the density wrt the origin
       ------------------------------------------------

     L   x y z        total         open         nuclear
     -   - - -        -----         ----         -------
     0   0 0 0     -0.000000      0.000000     10.000000

     1   1 0 0      0.000000      0.000000      0.000000
     1   0 1 0      0.717403      0.000000      0.000000
     1   0 0 1     -0.000000      0.000000      0.000000

     2   2 0 0     -4.515079      0.000000      0.000000
     2   1 1 0      0.000000      0.000000      0.000000
     2   1 0 1      0.000000      0.000000      0.000000
     2   0 2 0     -1.504140      0.000000      9.803450
     2   0 1 1      0.000000      0.000000      0.000000

 CCSD total energy / hartree       =       -99.957949830255160
 Total times  cpu:      112.1s     wall:      164.7s
