============================== echo of input deck ==============================
 echo
 start HF
 title "HF"

 memory total 24 gb

 geometry units bohr
 symmetry c1
        F  0.00000000  0.00000000  0.00000000
        H  0.00000000  3.3350625  0.00000000
 end

 basis spherical
   * library cc-pVTZ
 end

 mcscf
   active  8
   actelec 10
   multiplicity 1
   maxiter 40
   vectors input HF.mos
   vectors output HF.mos
 end

 task mcscf

 scf
   vectors input HF.mos
   vectors output HF-trash.mos
   noscf
 end

 tce
   2eorb
   2emet 13
   ccsd
   maxiter 500
 end

 set tce:print_integrals T
 set tce:qorb 8
 set tce:qela 5
 set tce:qelb 5

# set tce:qducc T
# set tce:nactv 3
# set tce:nonhf T
# set tce:ducc_model 3

 set tce:printtol 0.02

 task tce
================================================================================

 Output coordinates in a.u. (scale by  1.000000000 to convert to a.u.)

  No.       Tag          Charge          X              Y              Z
 ---- ---------------- ---------- -------------- -------------- --------------
    1 F                    9.0000     0.00000000    -0.33350625     0.00000000
    2 H                    1.0000     0.00000000     3.00155625     0.00000000

 Vector    1  Occ=1.999982D+00  E=-2.634218D+01  Symmetry=a

 Vector    2  Occ=1.999342D+00  E=-1.544258D+00  Symmetry=a

 Vector    3  Occ=1.999342D+00  E=-6.648509D-01  Symmetry=a

 Vector    4  Occ=1.995080D+00  E=-6.648504D-01  Symmetry=a

 Vector    5  Occ=1.689993D+00  E=-5.443430D-01  Symmetry=a

 Vector    6  Occ=3.103080D-01  E=-1.308966D-01  Symmetry=a

 Vector    7  Occ=3.736373D-03  E=-5.538000D-03  Symmetry=a

 Vector    8  Occ=2.216576D-03  E=-3.255412D-03  Symmetry=a

 Vector    9  Occ=0.000000D+00  E= 3.805441D-01  Symmetry=a

 Vector   10  Occ=0.000000D+00  E= 7.289011D-01  Symmetry=a

 Vector   11  Occ=0.000000D+00  E= 7.289011D-01  Symmetry=a

 Vector   12  Occ=0.000000D+00  E= 8.846212D-01  Symmetry=a

 Vector   13  Occ=0.000000D+00  E= 9.929281D-01  Symmetry=a

 Vector   14  Occ=0.000000D+00  E= 9.929281D-01  Symmetry=a

 Vector   15  Occ=0.000000D+00  E= 1.491449D+00  Symmetry=a

 Vector   16  Occ=0.000000D+00  E= 2.249629D+00  Symmetry=a

 Vector   17  Occ=0.000000D+00  E= 2.249629D+00  Symmetry=a

 Vector   18  Occ=0.000000D+00  E= 2.260988D+00  Symmetry=a

         Total SCF energy =    -99.825435674702

 Vector    2  Occ=2.000000D+00  E=-1.544258D+00

 Vector    3  Occ=2.000000D+00  E=-6.648509D-01

 Vector    4  Occ=2.000000D+00  E=-6.648504D-01

 Vector    5  Occ=2.000000D+00  E=-5.443430D-01

 Vector    6  Occ=0.000000D+00  E=-1.308966D-01

 Vector    7  Occ=0.000000D+00  E=-5.538000D-03

 Vector    8  Occ=0.000000D+00  E=-3.255412D-03

 Vector    9  Occ=0.000000D+00  E= 3.805441D-01

 Vector   10  Occ=0.000000D+00  E= 7.289011D-01

 Vector   11  Occ=0.000000D+00  E= 7.289011D-01

 Vector   12  Occ=0.000000D+00  E= 8.846212D-01

 Vector   13  Occ=0.000000D+00  E= 9.929281D-01

 Vector   14  Occ=0.000000D+00  E= 9.929281D-01

 Vector   15  Occ=0.000000D+00  E= 1.491449D+00

       Multipole analysis of the density wrt the origin
       ------------------------------------------------

     L   x y z        total         open         nuclear
     -   - - -        -----         ----         -------
     0   0 0 0     -0.000000      0.000000     10.000000

     1   1 0 0      0.000000      0.000000      0.000000
     1   0 1 0      0.706089      0.000000      0.000000
     1   0 0 1      0.000000      0.000000      0.000000

     2   2 0 0     -4.520276      0.000000      0.000000
     2   1 1 0      0.000000      0.000000      0.000000
     2   1 0 1      0.000000      0.000000      0.000000
     2   0 2 0     -1.512357      0.000000     10.010378
     2   0 1 1      0.000000      0.000000      0.000000

 CCSD total energy / hartree       =       -99.955911068502161
 Total times  cpu:      117.7s     wall:      174.2s
