============================== echo of input deck ==============================
 echo
 start HF
 title "HF"

 memory total 24 gb

 geometry units bohr
 symmetry c1
        F  0.00000000  0.00000000  0.00000000
        H  0.00000000  3.4390125  0.00000000
 end

 basis spherical
   * library cc-pVTZ
 end

 mcscf
   active  8
   actelec 10
   multiplicity 1
   maxiter 40
   vectors input HF.mos
   vectors output HF.mos
 end

 task mcscf

 scf
   vectors input HF.mos
   vectors output HF-trash.mos
   noscf
 end

 tce
   2eorb
   2emet 13
   ccsd
   maxiter 500
 end

 set tce:print_integrals T
 set tce:qorb 8
 set tce:qela 5
 set tce:qelb 5

# set tce:qducc T
# set tce:nactv 3
# set tce:nonhf T
# set tce:ducc_model 3

 set tce:printtol 0.02

 task tce
================================================================================

 Output coordinates in a.u. (scale by  1.000000000 to convert to a.u.)

  No.       Tag          Charge          X              Y              Z
 ---- ---------------- ---------- -------------- -------------- --------------
    1 F                    9.0000     0.00000000    -0.34390125     0.00000000
    2 H                    1.0000     0.00000000     3.09511125     0.00000000

 Vector    1  Occ=1.999981D+00  E=-2.634685D+01  Symmetry=a

 Vector    2  Occ=1.999373D+00  E=-1.547541D+00  Symmetry=a

 Vector    3  Occ=1.999373D+00  E=-6.692566D-01  Symmetry=a

 Vector    4  Occ=1.995197D+00  E=-6.692565D-01  Symmetry=a

 Vector    5  Occ=1.651954D+00  E=-5.328970D-01  Symmetry=a

 Vector    6  Occ=3.483112D-01  E=-1.416709D-01  Symmetry=a

 Vector    7  Occ=3.663470D-03  E=-5.414257D-03  Symmetry=a

 Vector    8  Occ=2.146146D-03  E=-3.228739D-03  Symmetry=a

 Vector    9  Occ=0.000000D+00  E= 3.818182D-01  Symmetry=a

 Vector   10  Occ=0.000000D+00  E= 7.302922D-01  Symmetry=a

 Vector   11  Occ=0.000000D+00  E= 7.302922D-01  Symmetry=a

 Vector   12  Occ=0.000000D+00  E= 8.634090D-01  Symmetry=a

 Vector   13  Occ=0.000000D+00  E= 9.868214D-01  Symmetry=a

 Vector   14  Occ=0.000000D+00  E= 9.868214D-01  Symmetry=a

 Vector   15  Occ=0.000000D+00  E= 1.466636D+00  Symmetry=a

 Vector   16  Occ=0.000000D+00  E= 2.247354D+00  Symmetry=a

 Vector   17  Occ=0.000000D+00  E= 2.247354D+00  Symmetry=a

 Vector   18  Occ=0.000000D+00  E= 2.257499D+00  Symmetry=a

         Total SCF energy =    -99.811242362988

 Vector    2  Occ=2.000000D+00  E=-1.547541D+00

 Vector    3  Occ=2.000000D+00  E=-6.692566D-01

 Vector    4  Occ=2.000000D+00  E=-6.692565D-01

 Vector    5  Occ=2.000000D+00  E=-5.328970D-01

 Vector    6  Occ=0.000000D+00  E=-1.416709D-01

 Vector    7  Occ=0.000000D+00  E=-5.414257D-03

 Vector    8  Occ=0.000000D+00  E=-3.228739D-03

 Vector    9  Occ=0.000000D+00  E= 3.818182D-01

 Vector   10  Occ=0.000000D+00  E= 7.302922D-01

 Vector   11  Occ=0.000000D+00  E= 7.302922D-01

 Vector   12  Occ=0.000000D+00  E= 8.634090D-01

 Vector   13  Occ=0.000000D+00  E= 9.868214D-01

 Vector   14  Occ=0.000000D+00  E= 9.868214D-01

 Vector   15  Occ=0.000000D+00  E= 1.466636D+00

       Multipole analysis of the density wrt the origin
       ------------------------------------------------

     L   x y z        total         open         nuclear
     -   - - -        -----         ----         -------
     0   0 0 0     -0.000000      0.000000     10.000000

     1   1 0 0      0.000000      0.000000      0.000000
     1   0 1 0      0.671110      0.000000      0.000000
     1   0 0 1      0.000000      0.000000      0.000000

     2   2 0 0     -4.534849      0.000000      0.000000
     2   1 1 0      0.000000      0.000000      0.000000
     2   1 0 1      0.000000      0.000000      0.000000
     2   0 2 0     -1.545610      0.000000     10.644126
     2   0 1 1     -0.000000      0.000000      0.000000

 CCSD total energy / hartree       =       -99.950302132896823
 Total times  cpu:      128.4s     wall:      188.4s
