============================== echo of input deck ==============================
 echo
 start HF
 title "HF"

 memory total 24 gb

 geometry units bohr
 symmetry c1
        F  0.00000000  0.00000000  0.00000000
        H  0.00000000  4.33125  0.00000000
 end

 basis spherical
   * library cc-pVTZ
 end

 mcscf
   active  8
   actelec 10
   multiplicity 1
   maxiter 40
   vectors input HF.mos
   vectors output HF.mos
 end

 task mcscf

 scf
   vectors input HF.mos
   vectors output HF-trash.mos
   noscf
 end

 tce
   2eorb
   2emet 13
   ccsd
   maxiter 500
 end

 set tce:print_integrals T
 set tce:qorb 8
 set tce:qela 5
 set tce:qelb 5

# set tce:qducc T
# set tce:nactv 3
# set tce:nonhf T
# set tce:ducc_model 3

 set tce:printtol 0.02

 task tce
================================================================================

 Output coordinates in a.u. (scale by  1.000000000 to convert to a.u.)

  No.       Tag          Charge          X              Y              Z
 ---- ---------------- ---------- -------------- -------------- --------------
    1 F                    9.0000     0.00000000    -0.43312500     0.00000000
    2 H                    1.0000     0.00000000     3.89812500     0.00000000

 Vector    1  Occ=2.000000D+00  E=-2.637212D+01  Symmetry=a

 Vector    2  Occ=1.999147D+00  E=-1.563322D+00  Symmetry=a

 Vector    3  Occ=1.997748D+00  E=-7.030283D-01  Symmetry=a

 Vector    4  Occ=1.996638D+00  E=-6.999241D-01  Symmetry=a

 Vector    5  Occ=1.331519D+00  E=-4.506774D-01  Symmetry=a

 Vector    6  Occ=6.686549D-01  E=-2.149408D-01  Symmetry=a

 Vector    7  Occ=3.317788D-03  E=-6.667648D-03  Symmetry=a

 Vector    8  Occ=2.976324D-03  E=-6.459979D-03  Symmetry=a

 Vector    9  Occ=0.000000D+00  E= 3.888837D-01  Symmetry=a

 Vector   10  Occ=0.000000D+00  E= 7.173769D-01  Symmetry=a

 Vector   11  Occ=0.000000D+00  E= 7.573910D-01  Symmetry=a

 Vector   12  Occ=0.000000D+00  E= 7.574030D-01  Symmetry=a

 Vector   13  Occ=0.000000D+00  E= 9.391541D-01  Symmetry=a

 Vector   14  Occ=0.000000D+00  E= 9.392126D-01  Symmetry=a

 Vector   15  Occ=0.000000D+00  E= 1.025697D+00  Symmetry=a

 Vector   16  Occ=0.000000D+00  E= 1.346331D+00  Symmetry=a

 Vector   17  Occ=0.000000D+00  E= 2.223896D+00  Symmetry=a

 Vector   18  Occ=0.000000D+00  E= 2.224920D+00  Symmetry=a

         Total SCF energy =    -99.710732046685

 Vector    2  Occ=2.000000D+00  E=-1.563322D+00

 Vector    3  Occ=2.000000D+00  E=-7.030283D-01

 Vector    4  Occ=2.000000D+00  E=-6.999241D-01

 Vector    5  Occ=2.000000D+00  E=-4.506774D-01

 Vector    6  Occ=0.000000D+00  E=-2.149408D-01

 Vector    7  Occ=0.000000D+00  E=-6.667648D-03

 Vector    8  Occ=0.000000D+00  E=-6.459979D-03

 Vector    9  Occ=0.000000D+00  E= 3.888837D-01

 Vector   10  Occ=0.000000D+00  E= 7.173769D-01

 Vector   11  Occ=0.000000D+00  E= 7.573910D-01

 Vector   12  Occ=0.000000D+00  E= 7.574030D-01

 Vector   13  Occ=0.000000D+00  E= 9.391541D-01

 Vector   14  Occ=0.000000D+00  E= 9.392126D-01

 Vector   15  Occ=0.000000D+00  E= 1.025697D+00

       Multipole analysis of the density wrt the origin
       ------------------------------------------------

     L   x y z        total         open         nuclear
     -   - - -        -----         ----         -------
     0   0 0 0     -0.000000      0.000000     10.000000

     1   1 0 0      0.000000      0.000000      0.000000
     1   0 1 0      0.356789      0.000000     -0.000000
     1   0 0 1     -0.000000      0.000000      0.000000

     2   2 0 0     -4.597982      0.000000      0.000000
     2   1 1 0     -0.000000      0.000000      0.000000
     2   1 0 1     -0.001416      0.000000      0.000000
     2   0 2 0     -2.202299      0.000000     16.883754
     2   0 1 1      0.000000      0.000000      0.000000

 CCSD total energy / hartree       =       -99.929609906769272
 Total times  cpu:      171.1s     wall:      243.1s
