============================== echo of input deck ==============================
 echo
 start HF
 title "HF"

 memory total 24 gb

 geometry units bohr
 symmetry c1
        F  0.00000000  0.00000000  0.00000000
        H  0.00000000  5.1975  0.00000000
 end

 basis spherical
   * library cc-pVTZ
 end

 mcscf
   active  8
   actelec 10
   multiplicity 1
   maxiter 40
   vectors input HF.mos
   vectors output HF.mos
 end

 task mcscf

 scf
   vectors input HF.mos
   vectors output HF-trash.mos
   noscf
 end

 tce
   2eorb
   2emet 13
   ccsd
   maxiter 500
 end

 set tce:print_integrals T
 set tce:qorb 8
 set tce:qela 5
 set tce:qelb 5

# set tce:qducc T
# set tce:nactv 3
# set tce:nonhf T
# set tce:ducc_model 3

 set tce:printtol 0.02

 task tce
================================================================================

 Output coordinates in a.u. (scale by  1.000000000 to convert to a.u.)

  No.       Tag          Charge          X              Y              Z
 ---- ---------------- ---------- -------------- -------------- --------------
    1 F                    9.0000     0.00000000    -0.51975000     0.00000000
    2 H                    1.0000     0.00000000     4.67775000     0.00000000

 Vector    1  Occ=2.000000D+00  E=-2.637712D+01  Symmetry=a

 Vector    2  Occ=1.999156D+00  E=-1.568635D+00  Symmetry=a

 Vector    3  Occ=1.997820D+00  E=-7.088906D-01  Symmetry=a

 Vector    4  Occ=1.996679D+00  E=-7.056366D-01  Symmetry=a

 Vector    5  Occ=1.154653D+00  E=-4.242811D-01  Symmetry=a

 Vector    6  Occ=8.453895D-01  E=-2.425689D-01  Symmetry=a

 Vector    7  Occ=3.344074D-03  E=-6.651239D-03  Symmetry=a

 Vector    8  Occ=2.958406D-03  E=-6.411609D-03  Symmetry=a

 Vector    9  Occ=0.000000D+00  E= 3.958778D-01  Symmetry=a

 Vector   10  Occ=0.000000D+00  E= 7.182114D-01  Symmetry=a

 Vector   11  Occ=0.000000D+00  E= 7.771312D-01  Symmetry=a

 Vector   12  Occ=0.000000D+00  E= 7.771347D-01  Symmetry=a

 Vector   13  Occ=0.000000D+00  E= 9.172326D-01  Symmetry=a

 Vector   14  Occ=0.000000D+00  E= 9.172864D-01  Symmetry=a

 Vector   15  Occ=0.000000D+00  E= 1.005823D+00  Symmetry=a

 Vector   16  Occ=0.000000D+00  E= 1.215115D+00  Symmetry=a

 Vector   17  Occ=0.000000D+00  E= 2.218315D+00  Symmetry=a

 Vector   18  Occ=0.000000D+00  E= 2.218554D+00  Symmetry=a

         Total SCF energy =    -99.648787415171

 Vector    2  Occ=2.000000D+00  E=-1.568635D+00

 Vector    3  Occ=2.000000D+00  E=-7.088906D-01

 Vector    4  Occ=2.000000D+00  E=-7.056366D-01

 Vector    5  Occ=2.000000D+00  E=-4.242811D-01

 Vector    6  Occ=0.000000D+00  E=-2.425689D-01

 Vector    7  Occ=0.000000D+00  E=-6.651239D-03

 Vector    8  Occ=0.000000D+00  E=-6.411609D-03

 Vector    9  Occ=0.000000D+00  E= 3.958778D-01

 Vector   10  Occ=0.000000D+00  E= 7.182114D-01

 Vector   11  Occ=0.000000D+00  E= 7.771312D-01

 Vector   12  Occ=0.000000D+00  E= 7.771347D-01

 Vector   13  Occ=0.000000D+00  E= 9.172326D-01

 Vector   14  Occ=0.000000D+00  E= 9.172864D-01

 Vector   15  Occ=0.000000D+00  E= 1.005823D+00

       Multipole analysis of the density wrt the origin
       ------------------------------------------------

     L   x y z        total         open         nuclear
     -   - - -        -----         ----         -------
     0   0 0 0     -0.000000      0.000000     10.000000

     1   1 0 0      0.000003      0.000000      0.000000
     1   0 1 0      0.185975      0.000000      0.000000
     1   0 0 1     -0.000002      0.000000      0.000000

     2   2 0 0     -4.608257      0.000000      0.000000
     2   1 1 0     -0.000021      0.000000      0.000000
     2   1 0 1     -0.001385      0.000000      0.000000
     2   0 2 0     -2.785059      0.000000     24.312606
     2   0 1 1      0.000017      0.000000      0.000000

 CCSD total energy / hartree       =       -99.924347605755869
 Total times  cpu:      301.6s     wall:      438.9s
