============================== echo of input deck ==============================
 echo
 start H2
 title "H2"

 memory total 24 gb

 geometry units bohr
 symmetry c1
        H  0.00000000  0.00000000  0.00000000
        H  0.00000000  2.70  0.00000000
 end

 basis
   * library cc-pVQZ
 end

 mcscf
   active  10
   actelec 2
   multiplicity 1
   maxiter 40
   vectors input H2.mos
   vectors output H2.mos
 end

 task mcscf

 scf
   vectors input H2.mos
   vectors output H2-2.70.mos
   noscf
 end

 tce
   2eorb
   2emet 13
   ccsd
   maxiter 300
   lshift 0.8
 end

# set tce:print_integrals T
# set tce:qorb 10
# set tce:qela 1
# set tce:qelb 1

 set tce:qducc T
 set tce:nactv 9
 set tce:nonhf T
 set tce:ducc_model 6

 set tce:printtol 0.02

 task tce
================================================================================

 Output coordinates in a.u. (scale by  1.000000000 to convert to a.u.)

  No.       Tag          Charge          X              Y              Z
 ---- ---------------- ---------- -------------- -------------- --------------
    1 H                    1.0000     0.00000000    -1.35000000     0.00000000
    2 H                    1.0000     0.00000000     1.35000000     0.00000000

 Vector    1  Occ=1.849792D+00  E=-4.666490D-01  Symmetry=a

 Vector    2  Occ=1.388369D-01  E=-5.231702D-02  Symmetry=a

 Vector    3  Occ=3.918043D-03  E=-2.482203D-03  Symmetry=a

 Vector    4  Occ=3.302736D-03  E=-2.068321D-03  Symmetry=a

 Vector    5  Occ=3.302736D-03  E=-2.068321D-03  Symmetry=a

 Vector    6  Occ=3.209180D-04  E=-2.704633D-04  Symmetry=a

 Vector    7  Occ=1.695055D-04  E=-1.676344D-04  Symmetry=a

 Vector    8  Occ=1.516624D-04  E=-1.471607D-04  Symmetry=a

 Vector    9  Occ=1.516624D-04  E=-1.471607D-04  Symmetry=a

 Vector   10  Occ=5.412706D-05  E=-6.634813D-05  Symmetry=a

 Vector   11  Occ=0.000000D+00  E= 4.663221D-01  Symmetry=a

 Vector   12  Occ=0.000000D+00  E= 8.505287D-01  Symmetry=a

 Vector   13  Occ=0.000000D+00  E= 1.066422D+00  Symmetry=a

 Vector   14  Occ=0.000000D+00  E= 1.382542D+00  Symmetry=a

 Vector   15  Occ=0.000000D+00  E= 1.382542D+00  Symmetry=a

 Vector   16  Occ=0.000000D+00  E= 1.546071D+00  Symmetry=a

 Vector   17  Occ=0.000000D+00  E= 1.546071D+00  Symmetry=a

 Vector   18  Occ=0.000000D+00  E= 1.963382D+00  Symmetry=a

 Vector   19  Occ=0.000000D+00  E= 1.963382D+00  Symmetry=a

 Vector   20  Occ=0.000000D+00  E= 2.001343D+00  Symmetry=a

         Total SCF energy =     -1.015934706267

 Vector    1  Occ=2.000000D+00  E=-4.666490D-01

 Vector    2  Occ=0.000000D+00  E=-5.231702D-02

 Vector    3  Occ=0.000000D+00  E=-2.482203D-03

 Vector    4  Occ=0.000000D+00  E=-2.068321D-03

 Vector    5  Occ=0.000000D+00  E=-2.068321D-03

 Vector    6  Occ=0.000000D+00  E=-2.704633D-04

 Vector    7  Occ=0.000000D+00  E=-1.676344D-04

 Vector    8  Occ=0.000000D+00  E=-1.471607D-04

 Vector    9  Occ=0.000000D+00  E=-1.471607D-04

 Vector   10  Occ=0.000000D+00  E=-6.634813D-05

 Vector   11  Occ=0.000000D+00  E= 4.663221D-01

 Vector   12  Occ=0.000000D+00  E= 8.505287D-01

       Multipole analysis of the density wrt the origin
       ------------------------------------------------

     L   x y z        total         open         nuclear
     -   - - -        -----         ----         -------
     0   0 0 0     -0.000000      0.000000      2.000000

     1   1 0 0     -0.000000      0.000000      0.000000
     1   0 1 0      0.000000      0.000000      0.000000
     1   0 0 1      0.000000      0.000000      0.000000

     2   2 0 0     -2.092171      0.000000      0.000000
     2   1 1 0     -0.000000      0.000000      0.000000
     2   1 0 1     -0.000000      0.000000      0.000000
     2   0 2 0     -0.964699      0.000000      3.645000
     2   0 1 1      0.000000      0.000000      0.000000

 CCSD total energy / hartree       =        -1.077376840780821
 Total times  cpu:      140.0s     wall:      143.7s
