============================== echo of input deck ==============================
 echo
 start H2
 title "H2"

 memory total 24 gb

 geometry units bohr
 symmetry c1
        H  0.00000000  0.00000000  0.00000000
        H  0.00000000  3.55  0.00000000
 end

 basis
   * library cc-pVQZ
 end

 mcscf
   active  10
   actelec 2
   multiplicity 1
   maxiter 40
   vectors input H2.mos
   vectors output H2.mos
 end

 task mcscf

 scf
   vectors input H2.mos
   vectors output H2-3.55.mos
   noscf
 end

 tce
   2eorb
   2emet 13
   ccsd
   maxiter 300
   lshift 0.8
 end

# set tce:print_integrals T
# set tce:qorb 10
# set tce:qela 1
# set tce:qelb 1

 set tce:qducc T
 set tce:nactv 9
 set tce:nonhf T
 set tce:ducc_model 6

 set tce:printtol 0.02

 task tce
================================================================================

 Output coordinates in a.u. (scale by  1.000000000 to convert to a.u.)

  No.       Tag          Charge          X              Y              Z
 ---- ---------------- ---------- -------------- -------------- --------------
    1 H                    1.0000     0.00000000    -1.77500000     0.00000000
    2 H                    1.0000     0.00000000     1.77500000     0.00000000

 Vector    1  Occ=1.647467D+00  E=-3.951796D-01  Symmetry=a

 Vector    2  Occ=3.467002D-01  E=-1.057622D-01  Symmetry=a

 Vector    3  Occ=2.240312D-03  E=-1.277652D-03  Symmetry=a

 Vector    4  Occ=1.591189D-03  E=-9.137381D-04  Symmetry=a

 Vector    5  Occ=1.591189D-03  E=-9.137381D-04  Symmetry=a

 Vector    6  Occ=1.725126D-04  E=-1.178772D-04  Symmetry=a

 Vector    7  Occ=7.125085D-05  E=-6.021335D-05  Symmetry=a

 Vector    8  Occ=7.125085D-05  E=-5.972391D-05  Symmetry=a

 Vector    9  Occ=6.869055D-05  E=-5.972391D-05  Symmetry=a

 Vector   10  Occ=2.649738D-05  E=-2.828101D-05  Symmetry=a

 Vector   11  Occ=0.000000D+00  E= 4.785146D-01  Symmetry=a

 Vector   12  Occ=0.000000D+00  E= 8.075895D-01  Symmetry=a

 Vector   13  Occ=0.000000D+00  E= 1.022936D+00  Symmetry=a

 Vector   14  Occ=0.000000D+00  E= 1.401899D+00  Symmetry=a

 Vector   15  Occ=0.000000D+00  E= 1.401899D+00  Symmetry=a

 Vector   16  Occ=0.000000D+00  E= 1.724773D+00  Symmetry=a

 Vector   17  Occ=0.000000D+00  E= 1.724773D+00  Symmetry=a

 Vector   18  Occ=0.000000D+00  E= 1.820286D+00  Symmetry=a

 Vector   19  Occ=0.000000D+00  E= 1.876624D+00  Symmetry=a

 Vector   20  Occ=0.000000D+00  E= 1.876624D+00  Symmetry=a

         Total SCF energy =     -0.935415422895

 Vector    1  Occ=2.000000D+00  E=-3.951796D-01

 Vector    2  Occ=0.000000D+00  E=-1.057622D-01

 Vector    3  Occ=0.000000D+00  E=-1.277652D-03

 Vector    4  Occ=0.000000D+00  E=-9.137381D-04

 Vector    5  Occ=0.000000D+00  E=-9.137381D-04

 Vector    6  Occ=0.000000D+00  E=-1.178772D-04

 Vector    7  Occ=0.000000D+00  E=-6.021335D-05

 Vector    8  Occ=0.000000D+00  E=-5.972391D-05

 Vector    9  Occ=0.000000D+00  E=-5.972391D-05

 Vector   10  Occ=0.000000D+00  E=-2.828101D-05

 Vector   11  Occ=0.000000D+00  E= 4.785146D-01

 Vector   12  Occ=0.000000D+00  E= 8.075895D-01

       Multipole analysis of the density wrt the origin
       ------------------------------------------------

     L   x y z        total         open         nuclear
     -   - - -        -----         ----         -------
     0   0 0 0     -0.000000      0.000000      2.000000

     1   1 0 0     -0.000000      0.000000      0.000000
     1   0 1 0     -0.000000      0.000000      0.000000
     1   0 0 1      0.000000      0.000000      0.000000

     2   2 0 0     -2.220150      0.000000      0.000000
     2   1 1 0      0.000000      0.000000      0.000000
     2   1 0 1     -0.000000      0.000000      0.000000
     2   0 2 0     -0.932645      0.000000      6.301250
     2   0 1 1      0.000000      0.000000      0.000000

 CCSD total energy / hartree       =        -1.029219012091032
 Total times  cpu:      141.1s     wall:      143.7s
