============================== echo of input deck ==============================
 echo
 start H2
 title "H2"

 memory total 24 gb

 geometry units bohr
 symmetry c1
        H  0.00000000  0.00000000  0.00000000
        H  0.00000000  3.70  0.00000000
 end

 basis
   * library cc-pVQZ
 end

 mcscf
   active  10
   actelec 2
   multiplicity 1
   maxiter 40
   vectors input H2.mos
   vectors output H2.mos
 end

 task mcscf

 scf
   vectors input H2.mos
   vectors output H2-3.70.mos
   noscf
 end

 tce
   2eorb
   2emet 13
   ccsd
   maxiter 300
   lshift 0.8
 end

# set tce:print_integrals T
# set tce:qorb 10
# set tce:qela 1
# set tce:qelb 1

 set tce:qducc T
 set tce:nactv 9
 set tce:nonhf T
 set tce:ducc_model 6

 set tce:printtol 0.02

 task tce
================================================================================

 Output coordinates in a.u. (scale by  1.000000000 to convert to a.u.)

  No.       Tag          Charge          X              Y              Z
 ---- ---------------- ---------- -------------- -------------- --------------
    1 H                    1.0000     0.00000000    -1.85000000     0.00000000
    2 H                    1.0000     0.00000000     1.85000000     0.00000000

 Vector    1  Occ=1.602984D+00  E=-3.834478D-01  Symmetry=a

 Vector    2  Occ=3.920343D-01  E=-1.165918D-01  Symmetry=a

 Vector    3  Occ=1.985851D-03  E=-1.116047D-03  Symmetry=a

 Vector    4  Occ=1.332541D-03  E=-7.601420D-04  Symmetry=a

 Vector    5  Occ=1.332541D-03  E=-7.601420D-04  Symmetry=a

 Vector    6  Occ=1.414513D-04  E=-9.441081D-05  Symmetry=a

 Vector    7  Occ=5.744804D-05  E=-4.764836D-05  Symmetry=a

 Vector    8  Occ=5.744804D-05  E=-4.764836D-05  Symmetry=a

 Vector    9  Occ=5.343128D-05  E=-4.671773D-05  Symmetry=a

 Vector   10  Occ=2.110549D-05  E=-2.259477D-05  Symmetry=a

 Vector   11  Occ=0.000000D+00  E= 4.784775D-01  Symmetry=a

 Vector   12  Occ=0.000000D+00  E= 8.073372D-01  Symmetry=a

 Vector   13  Occ=0.000000D+00  E= 1.011937D+00  Symmetry=a

 Vector   14  Occ=0.000000D+00  E= 1.399128D+00  Symmetry=a

 Vector   15  Occ=0.000000D+00  E= 1.399128D+00  Symmetry=a

 Vector   16  Occ=0.000000D+00  E= 1.758849D+00  Symmetry=a

 Vector   17  Occ=0.000000D+00  E= 1.758849D+00  Symmetry=a

 Vector   18  Occ=0.000000D+00  E= 1.795774D+00  Symmetry=a

 Vector   19  Occ=0.000000D+00  E= 1.874882D+00  Symmetry=a

 Vector   20  Occ=0.000000D+00  E= 1.874882D+00  Symmetry=a

         Total SCF energy =     -0.922950400963

 Vector    1  Occ=2.000000D+00  E=-3.834478D-01

 Vector    2  Occ=0.000000D+00  E=-1.165918D-01

 Vector    3  Occ=0.000000D+00  E=-1.116047D-03

 Vector    4  Occ=0.000000D+00  E=-7.601420D-04

 Vector    5  Occ=0.000000D+00  E=-7.601420D-04

 Vector    6  Occ=0.000000D+00  E=-9.441081D-05

 Vector    7  Occ=0.000000D+00  E=-4.764836D-05

 Vector    8  Occ=0.000000D+00  E=-4.764836D-05

 Vector    9  Occ=0.000000D+00  E=-4.671773D-05

 Vector   10  Occ=0.000000D+00  E=-2.259477D-05

 Vector   11  Occ=0.000000D+00  E= 4.784775D-01

 Vector   12  Occ=0.000000D+00  E= 8.073372D-01

       Multipole analysis of the density wrt the origin
       ------------------------------------------------

     L   x y z        total         open         nuclear
     -   - - -        -----         ----         -------
     0   0 0 0     -0.000000      0.000000      2.000000

     1   1 0 0     -0.000000      0.000000      0.000000
     1   0 1 0     -0.000000      0.000000      0.000000
     1   0 0 1      0.000000      0.000000      0.000000

     2   2 0 0     -2.224718      0.000000      0.000000
     2   1 1 0      0.000000      0.000000      0.000000
     2   1 0 1     -0.000000      0.000000      0.000000
     2   0 2 0     -0.941851      0.000000      6.845000
     2   0 1 1      0.000000      0.000000      0.000000

 CCSD total energy / hartree       =        -1.023951290468308
 Total times  cpu:      138.7s     wall:      142.2s
