============================== echo of input deck ==============================
 echo
 start H2
 title "H2"

 memory total 24 gb

 geometry units bohr
 symmetry c1
        H  0.00000000  0.00000000  0.00000000
        H  0.00000000  5.50  0.00000000
 end

 basis
   * library cc-pVQZ
 end

 mcscf
   active  10
   actelec 2
   multiplicity 1
   maxiter 40
   vectors input H2.mos
   vectors output H2.mos
 end

 task mcscf

 scf
   vectors input H2.mos
   vectors output H2-5.50.mos
   noscf
 end

 tce
   2eorb
   2emet 13
   ccsd
   maxiter 300
   lshift 0.8
 end

# set tce:print_integrals T
# set tce:qorb 10
# set tce:qela 1
# set tce:qelb 1

 set tce:qducc T
 set tce:nactv 9
 set tce:nonhf T
 set tce:ducc_model 6

 set tce:printtol 0.02

 task tce
================================================================================

 Output coordinates in a.u. (scale by  1.000000000 to convert to a.u.)

  No.       Tag          Charge          X              Y              Z
 ---- ---------------- ---------- -------------- -------------- --------------
    1 H                    1.0000     0.00000000    -2.75000000     0.00000000
    2 H                    1.0000     0.00000000     2.75000000     0.00000000

 Vector    1  Occ=1.178080D+00  E=-2.874895D-01  Symmetry=a

 Vector    2  Occ=8.214470D-01  E=-2.122244D-01  Symmetry=a

 Vector    3  Occ=2.886607D-04  E=-1.503852D-04  Symmetry=a

 Vector    4  Occ=8.914026D-05  E=-5.069131D-05  Symmetry=a

 Vector    5  Occ=8.914026D-05  E=-5.069131D-05  Symmetry=a

 Vector    6  Occ=3.467572D-06  E=-2.237410D-06  Symmetry=a

 Vector    7  Occ=1.064413D-06  E=-1.018012D-06  Symmetry=a

 Vector    8  Occ=6.770906D-07  E=-6.392512D-07  Symmetry=a

 Vector    9  Occ=6.770906D-07  E=-6.074309D-07  Symmetry=a

 Vector   10  Occ=5.013109D-07  E=-6.074309D-07  Symmetry=a

 Vector   11  Occ=0.000000D+00  E= 4.425271D-01  Symmetry=a

 Vector   12  Occ=0.000000D+00  E= 6.813059D-01  Symmetry=a

 Vector   13  Occ=0.000000D+00  E= 8.029237D-01  Symmetry=a

 Vector   14  Occ=0.000000D+00  E= 1.173258D+00  Symmetry=a

 Vector   15  Occ=0.000000D+00  E= 1.173258D+00  Symmetry=a

 Vector   16  Occ=0.000000D+00  E= 1.732904D+00  Symmetry=a

 Vector   17  Occ=0.000000D+00  E= 1.807929D+00  Symmetry=a

 Vector   18  Occ=0.000000D+00  E= 1.807929D+00  Symmetry=a

 Vector   19  Occ=0.000000D+00  E= 1.860936D+00  Symmetry=a

 Vector   20  Occ=0.000000D+00  E= 2.031658D+00  Symmetry=a

         Total SCF energy =     -0.814223109520

 Vector    1  Occ=2.000000D+00  E=-2.874895D-01

 Vector    2  Occ=0.000000D+00  E=-2.122244D-01

 Vector    3  Occ=0.000000D+00  E=-1.503852D-04

 Vector    4  Occ=0.000000D+00  E=-5.069131D-05

 Vector    5  Occ=0.000000D+00  E=-5.069131D-05

 Vector    6  Occ=0.000000D+00  E=-2.237410D-06

 Vector    7  Occ=0.000000D+00  E=-1.018012D-06

 Vector    8  Occ=0.000000D+00  E=-6.392512D-07

 Vector    9  Occ=0.000000D+00  E=-6.074309D-07

 Vector   10  Occ=0.000000D+00  E=-6.074309D-07

 Vector   11  Occ=0.000000D+00  E= 4.425271D-01

 Vector   12  Occ=0.000000D+00  E= 6.813059D-01

       Multipole analysis of the density wrt the origin
       ------------------------------------------------

     L   x y z        total         open         nuclear
     -   - - -        -----         ----         -------
     0   0 0 0     -0.000000      0.000000      2.000000

     1   1 0 0     -0.000000      0.000000      0.000000
     1   0 1 0     -0.000000      0.000000      0.000000
     1   0 0 1      0.000000      0.000000      0.000000

     2   2 0 0     -2.124183      0.000000      0.000000
     2   1 1 0     -0.000000      0.000000      0.000000
     2   1 0 1      0.000000      0.000000      0.000000
     2   0 2 0     -1.304165      0.000000     15.125000
     2   0 1 1      0.000000      0.000000      0.000000

 CCSD total energy / hartree       =        -1.001490297246592
 Total times  cpu:      141.0s     wall:      144.1s
