============================== echo of input deck ==============================
 echo
 start H2
 title "H2"

 memory total 24 gb

 geometry units bohr
 symmetry c1
        H  0.00000000  0.00000000  0.00000000
        H  0.00000000  6.20  0.00000000
 end

 basis
   * library cc-pVQZ
 end

 mcscf
   active  10
   actelec 2
   multiplicity 1
   maxiter 40
   vectors input H2.mos
   vectors output H2.mos
 end

 task mcscf

 scf
   vectors input H2.mos
   vectors output H2-6.20.mos
   noscf
 end

 tce
   2eorb
   2emet 13
   ccsd
   maxiter 300
   lshift 0.8
 end

# set tce:print_integrals T
# set tce:qorb 10
# set tce:qela 1
# set tce:qelb 1

 set tce:qducc T
 set tce:nactv 9
 set tce:nonhf T
 set tce:ducc_model 6

 set tce:printtol 0.02

 task tce
================================================================================

 Output coordinates in a.u. (scale by  1.000000000 to convert to a.u.)

  No.       Tag          Charge          X              Y              Z
 ---- ---------------- ---------- -------------- -------------- --------------
    1 H                    1.0000     0.00000000    -3.10000000     0.00000000
    2 H                    1.0000     0.00000000     3.10000000     0.00000000

 Vector    1  Occ=1.102776D+00  E=-2.716540D-01  Symmetry=a

 Vector    2  Occ=8.970475D-01  E=-2.282157D-01  Symmetry=a

 Vector    3  Occ=1.139551D-04  E=-6.053917D-05  Symmetry=a

 Vector    4  Occ=3.063120D-05  E=-1.752012D-05  Symmetry=a

 Vector    5  Occ=3.063120D-05  E=-1.752012D-05  Symmetry=a

 Vector    6  Occ=6.538077D-07  E=-4.383923D-07  Symmetry=a

 Vector    7  Occ=2.566842D-07  E=-2.414984D-07  Symmetry=a

 Vector    8  Occ=1.187868D-07  E=-1.445036D-07  Symmetry=a

 Vector    9  Occ=1.825661D-08  E=-1.659125D-08  Symmetry=a

 Vector   10  Occ=1.825661D-08  E=-1.659125D-08  Symmetry=a

 Vector   11  Occ=0.000000D+00  E= 4.269449D-01  Symmetry=a

 Vector   12  Occ=0.000000D+00  E= 6.422037D-01  Symmetry=a

 Vector   13  Occ=0.000000D+00  E= 8.259029D-01  Symmetry=a

 Vector   14  Occ=0.000000D+00  E= 1.143029D+00  Symmetry=a

 Vector   15  Occ=0.000000D+00  E= 1.143029D+00  Symmetry=a

 Vector   16  Occ=0.000000D+00  E= 1.762014D+00  Symmetry=a

 Vector   17  Occ=0.000000D+00  E= 1.822218D+00  Symmetry=a

 Vector   18  Occ=0.000000D+00  E= 1.822218D+00  Symmetry=a

 Vector   19  Occ=0.000000D+00  E= 1.870062D+00  Symmetry=a

 Vector   20  Occ=0.000000D+00  E= 2.043000D+00  Symmetry=a

         Total SCF energy =     -0.790173951102

 Vector    1  Occ=2.000000D+00  E=-2.716540D-01

 Vector    2  Occ=0.000000D+00  E=-2.282157D-01

 Vector    3  Occ=0.000000D+00  E=-6.053917D-05

 Vector    4  Occ=0.000000D+00  E=-1.752012D-05

 Vector    5  Occ=0.000000D+00  E=-1.752012D-05

 Vector    6  Occ=0.000000D+00  E=-4.383923D-07

 Vector    7  Occ=0.000000D+00  E=-2.414984D-07

 Vector    8  Occ=0.000000D+00  E=-1.445036D-07

 Vector    9  Occ=0.000000D+00  E=-1.659125D-08

 Vector   10  Occ=0.000000D+00  E=-1.659125D-08

 Vector   11  Occ=0.000000D+00  E= 4.269449D-01

 Vector   12  Occ=0.000000D+00  E= 6.422037D-01

       Multipole analysis of the density wrt the origin
       ------------------------------------------------

     L   x y z        total         open         nuclear
     -   - - -        -----         ----         -------
     0   0 0 0     -0.000000      0.000000      2.000000

     1   1 0 0     -0.000000      0.000000      0.000000
     1   0 1 0     -0.000000      0.000000      0.000000
     1   0 0 1      0.000000      0.000000      0.000000

     2   2 0 0     -2.082081      0.000000      0.000000
     2   1 1 0     -0.000000      0.000000      0.000000
     2   1 0 1      0.000000      0.000000      0.000000
     2   0 2 0     -1.468715      0.000000     19.220000
     2   0 1 1      0.000000      0.000000      0.000000

 CCSD total energy / hartree       =        -1.000417048922067
 Total times  cpu:      139.5s     wall:      142.4s
