============================== echo of input deck ==============================
 echo
 start H2
 title "H2"

 memory total 24 gb

 geometry units bohr
 symmetry c1
        H  0.00000000  0.00000000  0.00000000
        H  0.00000000  7.25  0.00000000
 end

 basis
   * library cc-pVQZ
 end

 mcscf
   active  10
   actelec 2
   multiplicity 1
   maxiter 40
   vectors input H2.mos
   vectors output H2.mos
 end

 task mcscf

 scf
   vectors input H2.mos
   vectors output H2-7.25.mos
   noscf
 end

 tce
   2eorb
   2emet 13
   ccsd
   maxiter 300
   lshift 0.8
 end

# set tce:print_integrals T
# set tce:qorb 10
# set tce:qela 1
# set tce:qelb 1

 set tce:qducc T
 set tce:nactv 9
 set tce:nonhf T
 set tce:ducc_model 6

 set tce:printtol 0.02

 task tce
================================================================================

 Output coordinates in a.u. (scale by  1.000000000 to convert to a.u.)

  No.       Tag          Charge          X              Y              Z
 ---- ---------------- ---------- -------------- -------------- --------------
    1 H                    1.0000     0.00000000    -3.62500000     0.00000000
    2 H                    1.0000     0.00000000     3.62500000     0.00000000

 Vector    1  Occ=1.044313D+00  E=-2.593722D-01  Symmetry=a

 Vector    2  Occ=9.556420D-01  E=-2.405608D-01  Symmetry=a

 Vector    3  Occ=3.009823D-05  E=-1.641703D-05  Symmetry=a

 Vector    4  Occ=7.353755D-06  E=-4.201691D-06  Symmetry=a

 Vector    5  Occ=7.353755D-06  E=-4.201691D-06  Symmetry=a

 Vector    6  Occ=5.009486D-08  E=-4.485928D-08  Symmetry=a

 Vector    7  Occ=5.009486D-08  E=-4.485928D-08  Symmetry=a

 Vector    8  Occ=4.832496D-08  E=-3.495297D-08  Symmetry=a

 Vector    9  Occ=2.803291D-08  E=-2.577731D-08  Symmetry=a

 Vector   10  Occ=1.103117D-08  E=-1.276605D-08  Symmetry=a

 Vector   11  Occ=0.000000D+00  E= 4.216324D-01  Symmetry=a

 Vector   12  Occ=0.000000D+00  E= 6.056516D-01  Symmetry=a

 Vector   13  Occ=0.000000D+00  E= 8.265342D-01  Symmetry=a

 Vector   14  Occ=0.000000D+00  E= 1.136652D+00  Symmetry=a

 Vector   15  Occ=0.000000D+00  E= 1.136652D+00  Symmetry=a

 Vector   16  Occ=0.000000D+00  E= 1.752121D+00  Symmetry=a

 Vector   17  Occ=0.000000D+00  E= 1.837040D+00  Symmetry=a

 Vector   18  Occ=0.000000D+00  E= 1.837040D+00  Symmetry=a

 Vector   19  Occ=0.000000D+00  E= 1.917673D+00  Symmetry=a

 Vector   20  Occ=0.000000D+00  E= 2.051334D+00  Symmetry=a

         Total SCF energy =     -0.766575386467

 Vector    1  Occ=2.000000D+00  E=-2.593722D-01

 Vector    2  Occ=0.000000D+00  E=-2.405608D-01

 Vector    3  Occ=0.000000D+00  E=-1.641703D-05

 Vector    4  Occ=0.000000D+00  E=-4.201691D-06

 Vector    5  Occ=0.000000D+00  E=-4.201691D-06

 Vector    6  Occ=0.000000D+00  E=-4.485928D-08

 Vector    7  Occ=0.000000D+00  E=-4.485928D-08

 Vector    8  Occ=0.000000D+00  E=-3.495297D-08

 Vector    9  Occ=0.000000D+00  E=-2.577731D-08

 Vector   10  Occ=0.000000D+00  E=-1.276605D-08

 Vector   11  Occ=0.000000D+00  E= 4.216324D-01

 Vector   12  Occ=0.000000D+00  E= 6.056516D-01

       Multipole analysis of the density wrt the origin
       ------------------------------------------------

     L   x y z        total         open         nuclear
     -   - - -        -----         ----         -------
     0   0 0 0     -0.000000      0.000000      2.000000

     1   1 0 0     -0.000000      0.000000      0.000000
     1   0 1 0     -0.000000      0.000000      0.000000
     1   0 0 1      0.000000      0.000000      0.000000

     2   2 0 0     -2.040355      0.000000      0.000000
     2   1 1 0     -0.000000      0.000000      0.000000
     2   1 0 1      0.000000      0.000000      0.000000
     2   0 2 0     -1.669606      0.000000     26.281250
     2   0 1 1      0.000000      0.000000      0.000000

 CCSD total energy / hartree       =        -0.999996525266893
 Total times  cpu:      143.8s     wall:      146.6s
