============================== echo of input deck ==============================

echo
start H6
title "H6"

memory total 12 gb

geometry units bohr
symmetry c1
H 0 0 0
H 0 0 2.17
H 0 0 4.34
H 0 0 6.51
H 0 0 8.68
H 0 0 10.85
end

basis spherical
  * library cc-pVTZ
end

scf
thresh 1e-8
end

tce
  2eorb
  2emet 13
  ccsd
  thresh 1e-8
  maxiter 300
end

set tce:print_integrals T
set tce:qorb 6
set tce:qela 3
set tce:qelb 3

# set tce:qducc T
# set tce:nactv 3
# set tce:nonhf T
# set tce:ducc_model 6

set tce:printtol 0.02

task tce
================================================================================

 Output coordinates in a.u. (scale by  1.000000000 to convert to a.u.)

  No.       Tag          Charge          X              Y              Z
 ---- ---------------- ---------- -------------- -------------- --------------
    1 H                    1.0000     0.00000000     0.00000000    -5.42500000
    2 H                    1.0000     0.00000000     0.00000000    -3.25500000
    3 H                    1.0000     0.00000000     0.00000000    -1.08500000
    4 H                    1.0000     0.00000000     0.00000000     1.08500000
    5 H                    1.0000     0.00000000     0.00000000     3.25500000
    6 H                    1.0000     0.00000000     0.00000000     5.42500000

         Total SCF energy =     -3.189892200814

 Vector    1  Occ=2.000000D+00  E=-6.346203D-01

 Vector    2  Occ=2.000000D+00  E=-5.366659D-01

 Vector    3  Occ=2.000000D+00  E=-3.880018D-01

 Vector    4  Occ=0.000000D+00  E= 9.178737D-03

 Vector    5  Occ=0.000000D+00  E= 1.757524D-01

 Vector    6  Occ=0.000000D+00  E= 2.949382D-01

 Vector    7  Occ=0.000000D+00  E= 3.335101D-01

 Vector    8  Occ=0.000000D+00  E= 4.168156D-01

 Vector    9  Occ=0.000000D+00  E= 4.484406D-01

 Vector   10  Occ=0.000000D+00  E= 5.669920D-01

 Vector   11  Occ=0.000000D+00  E= 5.669920D-01

 Vector   12  Occ=0.000000D+00  E= 6.002598D-01

 Vector   13  Occ=0.000000D+00  E= 6.012848D-01

       Multipole analysis of the density wrt the origin
       ------------------------------------------------

     L   x y z        total         open         nuclear
     -   - - -        -----         ----         -------
     0   0 0 0     -0.000000      0.000000      6.000000

     1   1 0 0     -0.000000      0.000000      0.000000
     1   0 1 0     -0.000000      0.000000      0.000000
     1   0 0 1     -0.000000      0.000000      0.000000

     2   2 0 0     -5.621463      0.000000      0.000000
     2   1 1 0     -0.000000      0.000000      0.000000
     2   1 0 1      0.000000      0.000000      0.000000
     2   0 2 0     -5.621463      0.000000      0.000000
     2   0 1 1     -0.000000      0.000000      0.000000

 CCSD total energy / hartree       =        -3.228623309021202
 Total times  cpu:       12.9s     wall:       17.6s
