============================== echo of input deck ==============================

echo
start H6
title "H6"

memory total 12 gb

geometry units bohr
symmetry c1
H 0 0 0
H 0 0 2.52
H 0 0 5.04
H 0 0 7.56
H 0 0 10.08
H 0 0 12.60
end

basis spherical
  * library cc-pVTZ
end

scf
thresh 1e-8
end

tce
  2eorb
  2emet 13
  ccsd
  thresh 1e-8
  maxiter 300
end

set tce:print_integrals T
set tce:qorb 6
set tce:qela 3
set tce:qelb 3

# set tce:qducc T
# set tce:nactv 3
# set tce:nonhf T
# set tce:ducc_model 6

set tce:printtol 0.02

task tce
================================================================================

 Output coordinates in a.u. (scale by  1.000000000 to convert to a.u.)

  No.       Tag          Charge          X              Y              Z
 ---- ---------------- ---------- -------------- -------------- --------------
    1 H                    1.0000     0.00000000     0.00000000    -6.30000000
    2 H                    1.0000     0.00000000     0.00000000    -3.78000000
    3 H                    1.0000     0.00000000     0.00000000    -1.26000000
    4 H                    1.0000     0.00000000     0.00000000     1.26000000
    5 H                    1.0000     0.00000000     0.00000000     3.78000000
    6 H                    1.0000     0.00000000     0.00000000     6.30000000

         Total SCF energy =     -3.100027859450

 Vector    1  Occ=2.000000D+00  E=-5.718790D-01

 Vector    2  Occ=2.000000D+00  E=-4.961662D-01

 Vector    3  Occ=2.000000D+00  E=-3.810539D-01

 Vector    4  Occ=0.000000D+00  E=-3.387010D-02

 Vector    5  Occ=0.000000D+00  E= 1.171737D-01

 Vector    6  Occ=0.000000D+00  E= 2.617045D-01

 Vector    7  Occ=0.000000D+00  E= 3.436810D-01

 Vector    8  Occ=0.000000D+00  E= 3.968923D-01

 Vector    9  Occ=0.000000D+00  E= 4.183190D-01

 Vector   10  Occ=0.000000D+00  E= 4.932605D-01

 Vector   11  Occ=0.000000D+00  E= 5.710999D-01

 Vector   12  Occ=0.000000D+00  E= 5.779530D-01

 Vector   13  Occ=0.000000D+00  E= 5.779530D-01

       Multipole analysis of the density wrt the origin
       ------------------------------------------------

     L   x y z        total         open         nuclear
     -   - - -        -----         ----         -------
     0   0 0 0     -0.000000      0.000000      6.000000

     1   1 0 0     -0.000000      0.000000      0.000000
     1   0 1 0     -0.000000      0.000000      0.000000
     1   0 0 1      0.000000      0.000000      0.000000

     2   2 0 0     -6.221014      0.000000      0.000000
     2   1 1 0     -0.000000      0.000000      0.000000
     2   1 0 1     -0.000000      0.000000      0.000000
     2   0 2 0     -6.221014      0.000000      0.000000
     2   0 1 1     -0.000000      0.000000      0.000000

 CCSD total energy / hartree       =        -3.161652155821474
 Total times  cpu:       15.1s     wall:       21.5s
