============================== echo of input deck ==============================
 echo
 start Li2
 title "Li2"

 memory total 24 gb

 geometry units bohr
 symmetry c1
        Li  0.00000000  0.00000000  0.00000000
        Li  0.00000000  6.0  0.00000000
 end

 basis
   * library cc-pVTZ
 end

 mcscf
   active  4
   actelec 6
   multiplicity 1
   maxiter 40
   vectors input Li2.mos
   vectors output Li2.mos
 end

 task mcscf

 scf
   vectors input Li2.mos
   vectors output Li2-6.0.mos
   noscf
 end

 tce
   2eorb
   2emet 13
   ccsd
   maxiter 300
#   lshift 0.8
 end

# set tce:print_integrals T
# set tce:qorb 10
# set tce:qela 1
# set tce:qelb 1

 set tce:qducc T
 set tce:nactv 1
 set tce:nonhf T
 set tce:ducc_model 3

 set tce:printtol 0.02

 task tce
================================================================================

 Output coordinates in a.u. (scale by  1.000000000 to convert to a.u.)

  No.       Tag          Charge          X              Y              Z
 ---- ---------------- ---------- -------------- -------------- --------------
    1 Li                   3.0000     0.00000000    -3.00000000     0.00000000
    2 Li                   3.0000     0.00000000     3.00000000     0.00000000

 Vector    1  Occ=1.999996D+00  E=-2.462530D+00  Symmetry=a

 Vector    2  Occ=1.999996D+00  E=-2.462485D+00  Symmetry=a

 Vector    3  Occ=1.858066D+00  E=-1.735091D-01  Symmetry=a

 Vector    4  Occ=1.419412D-01  E=-1.960207D-02  Symmetry=a

 Vector    5  Occ=0.000000D+00  E= 2.656552D-02  Symmetry=a

 Vector    6  Occ=0.000000D+00  E= 2.656552D-02  Symmetry=a

 Vector    7  Occ=0.000000D+00  E= 3.654343D-02  Symmetry=a

 Vector    8  Occ=0.000000D+00  E= 4.555319D-02  Symmetry=a

 Vector    9  Occ=0.000000D+00  E= 5.280545D-02  Symmetry=a

 Vector   10  Occ=0.000000D+00  E= 5.280545D-02  Symmetry=a

 Vector   11  Occ=0.000000D+00  E= 9.859212D-02  Symmetry=a

 Vector   12  Occ=0.000000D+00  E= 1.111023D-01  Symmetry=a

 Vector   13  Occ=0.000000D+00  E= 1.111023D-01  Symmetry=a

 Vector   14  Occ=0.000000D+00  E= 1.182239D-01  Symmetry=a

         Total SCF energy =    -14.867311051457

 Vector    2  Occ=2.000000D+00  E=-2.462485D+00

 Vector    3  Occ=2.000000D+00  E=-1.735091D-01

 Vector    4  Occ=0.000000D+00  E=-1.960207D-02

 Vector    5  Occ=0.000000D+00  E= 2.656552D-02

 Vector    6  Occ=0.000000D+00  E= 2.656552D-02

 Vector    7  Occ=0.000000D+00  E= 3.654343D-02

 Vector    8  Occ=0.000000D+00  E= 4.555319D-02

 Vector    9  Occ=0.000000D+00  E= 5.280545D-02

 Vector   10  Occ=0.000000D+00  E= 5.280545D-02

 Vector   11  Occ=0.000000D+00  E= 9.859212D-02

 Vector   12  Occ=0.000000D+00  E= 1.111023D-01

 Vector   13  Occ=0.000000D+00  E= 1.111023D-01

 Vector   14  Occ=0.000000D+00  E= 1.182239D-01

 Vector   15  Occ=0.000000D+00  E= 1.463211D-01

 Vector   16  Occ=0.000000D+00  E= 1.463211D-01

 Vector   17  Occ=0.000000D+00  E= 1.521542D-01

 Vector   18  Occ=0.000000D+00  E= 1.852609D-01

 Vector   19  Occ=0.000000D+00  E= 2.152827D-01

 Vector   20  Occ=0.000000D+00  E= 2.152827D-01

 Vector   21  Occ=0.000000D+00  E= 2.399057D-01

 Vector   22  Occ=0.000000D+00  E= 2.399057D-01

 Vector   23  Occ=0.000000D+00  E= 2.673547D-01

 Vector   24  Occ=0.000000D+00  E= 2.673547D-01

 Vector   25  Occ=0.000000D+00  E= 2.976414D-01

 Vector   26  Occ=0.000000D+00  E= 3.426734D-01

 Vector   27  Occ=0.000000D+00  E= 3.426734D-01

 Vector   28  Occ=0.000000D+00  E= 3.594573D-01

 Vector   29  Occ=0.000000D+00  E= 3.712954D-01

 Vector   30  Occ=0.000000D+00  E= 3.712954D-01

 Vector   31  Occ=0.000000D+00  E= 3.847124D-01

 Vector   32  Occ=0.000000D+00  E= 3.882068D-01

 Vector   33  Occ=0.000000D+00  E= 3.882068D-01

 Vector   34  Occ=0.000000D+00  E= 4.244950D-01

 Vector   35  Occ=0.000000D+00  E= 4.382752D-01

 Vector   36  Occ=0.000000D+00  E= 5.005666D-01

       Multipole analysis of the density wrt the origin
       ------------------------------------------------

     L   x y z        total         open         nuclear
     -   - - -        -----         ----         -------
     0   0 0 0     -0.000000      0.000000      6.000000

     1   1 0 0      0.000025      0.000000      0.000000
     1   0 1 0      0.000000      0.000000      0.000000
     1   0 0 1      0.000038      0.000000      0.000000

     2   2 0 0    -12.427217      0.000000      0.000000
     2   1 1 0     -0.000000      0.000000      0.000000
     2   1 0 1     -0.000000      0.000000      0.000000
     2   0 2 0     -2.483622      0.000000     54.000000
     2   0 1 1      0.000000      0.000000      0.000000

 CCSD total energy / hartree       =       -14.931609511387887
 Total times  cpu:       36.9s     wall:       39.1s
