============================== echo of input deck ==============================
 echo
 start H2
 title "H2"

 memory total 36 gb

 geometry units bohr
 symmetry c1
        H  0.00000000  0.00000000  0.00000000
        H  0.00000000  1.401  0.00000000
 end

 basis spherical
   * library cc-pVQZ
 end

 tce
   2eorb
   2emet 13
   ccsd
   maxiter 300
 end

 set tce:print_integrals T
 set tce:qorb 2
 set tce:qela 1
 set tce:qelb 1

# set tce:qducc T
# set tce:nactv 9
# set tce:nonhf T
# set tce:ducc_model 6

 set tce:printtol 0.02

 task tce
================================================================================

 Output coordinates in a.u. (scale by  1.000000000 to convert to a.u.)

  No.       Tag          Charge          X              Y              Z
 ---- ---------------- ---------- -------------- -------------- --------------
    1 H                    1.0000     0.00000000    -0.70050000     0.00000000
    2 H                    1.0000     0.00000000     0.70050000     0.00000000

         Total SCF energy =     -1.133453585152

 Vector    1  Occ=2.000000D+00  E=-5.944640D-01

 Vector    2  Occ=0.000000D+00  E= 1.475905D-01

 Vector    3  Occ=0.000000D+00  E= 2.316130D-01

 Vector    4  Occ=0.000000D+00  E= 5.099871D-01

 Vector    5  Occ=0.000000D+00  E= 5.099871D-01

 Vector    6  Occ=0.000000D+00  E= 5.216497D-01

 Vector    7  Occ=0.000000D+00  E= 8.024436D-01

 Vector    8  Occ=0.000000D+00  E= 8.148179D-01

 Vector    9  Occ=0.000000D+00  E= 8.148179D-01

 Vector   10  Occ=0.000000D+00  E= 1.106689D+00

 Vector   11  Occ=0.000000D+00  E= 1.311394D+00

       Multipole analysis of the density wrt the origin
       ------------------------------------------------

     L   x y z        total         open         nuclear
     -   - - -        -----         ----         -------
     0   0 0 0     -0.000000      0.000000      2.000000

     1   1 0 0      0.000000      0.000000      0.000000
     1   0 1 0      0.000000      0.000000      0.000000
     1   0 0 1      0.000000      0.000000      0.000000

     2   2 0 0     -1.554220      0.000000      0.000000
     2   1 1 0     -0.000000      0.000000      0.000000
     2   1 0 1     -0.000000      0.000000      0.000000
     2   0 2 0     -1.070326      0.000000      0.981401
     2   0 1 1      0.000000      0.000000      0.000000

 CCSD total energy / hartree       =        -1.134318451895006
 Total times  cpu:        3.1s     wall:        5.1s
